ITEM: TIMESTEP
100000
ITEM: NUMBER OF ATOMS
2
ITEM: BOX BOUNDS pp pp pp
0.0000000000000000e+00 3.0000000000000000e+01
0.0000000000000000e+00 3.0000000000000000e+01
-5.0000000000000000e-01 5.0000000000000000e-01
ITEM: ATOMS id x y z ix iy iz v_theta vx vy vz
1 28.409 16.1936 0 -8 1 0 2.31658 -0.114217 0.286704 0
2 12.7887 22.6823 0 7 -1 0 5.98947 0.114217 -0.286704 0
ITEM: TIMESTEP
101000
ITEM: NUMBER OF ATOMS
2
ITEM: BOX BOUNDS pp pp pp
0.0000000000000000e+00 3.0000000000000000e+01
0.0000000000000000e+00 3.0000000000000000e+01
-5.0000000000000000e-01 5.0000000000000000e-01
ITEM: ATOMS id x y z ix iy iz v_theta vx vy vz
1 27.8135 16.7141 0 -8 1 0 2.12009 -0.825423 0.855765 0
2 13.6319 22.4078 0 7 -1 0 6.20322 1.05817 -0.399757 0
ITEM: TIMESTEP
102000
ITEM: NUMBER OF ATOMS
2
ITEM: BOX BOUNDS pp pp pp
0.0000000000000000e+00 3.0000000000000000e+01
0.0000000000000000e+00 3.0000000000000000e+01
-5.0000000000000000e-01 5.0000000000000000e-01
ITEM: ATOMS id x y z ix iy iz v_theta vx vy vz
1 27.1033 17.4009 0 -8 1 0 2.25056 -0.289771 0.98734 0
2 14.5702 22.4434 0 7 -1 0 6.11843 0.884834 -0.260393 0
ITEM: TIMESTEP
103000
ITEM: NUMBER OF ATOMS
2
ITEM: BOX BOUNDS pp pp pp
0.0000000000000000e+00 3.0000000000000000e+01
0.0000000000000000e+00 3.0000000000000000e+01
-5.0000000000000000e-01 5.0000000000000000e-01
ITEM: ATOMS id x y z ix iy iz v_theta vx vy vz
1 26.4678 18.1029 0 -8 1 0 2.12987 -0.287641 0.478172 0
2 15.6587 22.2867 0 7 -1 0 6.17448 1.14604 -0.00752643 0
ITEM: TIMESTEP
104000
ITEM: NUMBER OF ATOMS
2
ITEM: BOX BOUNDS pp pp pp
0.0000000000000000e+00 3.0000000000000000e+01
0.0000000000000000e+00 3.0000000000000000e+01
-5.0000000000000000e-01 5.0000000000000000e-01
ITEM: ATOMS id x y z ix iy iz v_theta vx vy vz
1 25.8412 18.7694 0 -8 1 0 2.46914 -0.687564 0.280831 0
2 16.7108 22.3006 0 7 -1 0 6.33917 1.22369 0.409563 0
ITEM: TIMESTEP
105000
ITEM: NUMBER OF ATOMS
2
ITEM: BOX BOUNDS pp pp pp
0.0000000000000000e+00 3.0000000000000000e+01
0.0000000000000000e+00 3.0000000000000000e+01
-5.0000000000000000e-01 5.0000000000000000e-01
ITEM: ATOMS id x y z ix iy iz v_theta vx vy vz
1 24.9174 19.2699 0 -8 1 0 2.73875 -0.755891 0.313112 0
2 17.7418 22.6473 0 7 -1 0 6.72327 1.13453 0.929985 0
ITEM: TIMESTEP
106000
ITEM: NUMBER OF ATOMS
2
ITEM: BOX BOUNDS pp pp pp
0.0000000000000000e+00 3.0000000000000000e+01
0.0000000000000000e+00 3.0000000000000000e+01
-5.0000000000000000e-01 5.0000000000000000e-01
ITEM: ATOMS id x y z ix iy iz v_theta vx vy vz
1 23.9476 19.4816 0 -8 1 0 2.93703 -1.05091 0.3226 0
2 18.5856 23.1404 0 7 -1 0 6.68342 0.924695 0.796024 0
ITEM: TIMESTEP
107000
ITEM: NUMBER OF ATOMS
2
ITEM: BOX BOUNDS pp pp pp
0.0000000000000000e+00 3.0000000000000000e+01
0.0000000000000000e+00 3.0000000000000000e+01
-5.0000000000000000e-01 5.0000000000000000e-01
ITEM: ATOMS id x y z ix iy iz v_theta vx vy vz
1 22.8923 19.45 0 -8 1 0 3.00147 -0.916993 0.0859949 0
2 19.527 23.3746 0 7 -1 0 6.2855 0.674738 0.178247 0
ITEM: TIMESTEP
108000
ITEM: NUMBER OF ATOMS
2
ITEM: BOX BOUNDS pp pp pp
0.0000000000000000e+00 3.0000000000000000e+01
0.0000000000000000e+00 3.0000000000000000e+01
-5.0000000000000000e-01 5.0000000000000000e-01
ITEM: ATOMS id x y z ix iy iz v_theta vx vy vz
1 21.9862 19.4217 0 -8 1 0 2.76646 -0.834889 0.430462 0
2 20.4929 23.2653 0 7 -1 0 6.15369 0.82547 -0.168874 0
ITEM: TIMESTEP
109000
ITEM: NUMBER OF ATOMS
2
ITEM: BOX BOUNDS pp pp pp
0.0000000000000000e+00 3.0000000000000000e+01
0.0000000000000000e+00 3.0000000000000000e+01
-5.0000000000000000e-01 5.0000000000000000e-01
ITEM: ATOMS id x y z ix iy iz v_theta vx vy vz
1 21.0322 19.7924 0 -8 1 0 2.8634 -1.08062 0.0539051 0
2 21.5221 23.448 0 7 -1 0 6.80946 0.834214 0.30084 0
ITEM: TIMESTEP
110000
ITEM: NUMBER OF ATOMS
2
ITEM: BOX BOUNDS pp pp pp
0.0000000000000000e+00 3.0000000000000000e+01
0.0000000000000000e+00 3.0000000000000000e+01
-5.0000000000000000e-01 5.0000000000000000e-01
ITEM: ATOMS id x y z ix iy iz v_theta vx vy vz
1 20.139 20.0543 0 -8 1 0 2.57419 -1.04782 0.461788 0
2 22.2153 24.1683 0 7 -1 0 6.82726 1.12598 0.500121 0
ITEM: TIMESTEP
111000
ITEM: NUMBER OF ATOMS
2
ITEM: BOX BOUNDS pp pp pp
0.0000000000000000e+00 3.0000000000000000e+01
0.0000000000000000e+00 3.0000000000000000e+01
-5.0000000000000000e-01 5.0000000000000000e-01
ITEM: ATOMS id x y z ix iy iz v_theta vx vy vz
1 19.316 20.5232 0 -8 1 0 2.87346 -0.874818 0.411492 0
2 23.3688 24.7078 0 7 -1 0 6.57704 1.15095 0.274214 0
ITEM: TIMESTEP
112000
ITEM: NUMBER OF ATOMS
2
ITEM: BOX BOUNDS pp pp pp
0.0000000000000000e+00 3.0000000000000000e+01
0.0000000000000000e+00 3.0000000000000000e+01
-5.0000000000000000e-01 5.0000000000000000e-01
ITEM: ATOMS id x y z ix iy iz v_theta vx vy vz
1 18.4716 20.6969 0 -8 1 0 3.50957 -1.155 -0.354185 0
2 24.3855 24.7246 0 7 -1 0 6.09733 0.918719 -0.0869107 0
ITEM: TIMESTEP
113000
ITEM: NUMBER OF ATOMS
2
ITEM: BOX BOUNDS pp pp pp
0.0000000000000000e+00 3.0000000000000000e+01
0.0000000000000000e+00 3.0000000000000000e+01
-5.0000000000000000e-01 5.0000000000000000e-01
ITEM: ATOMS id x y z ix iy iz v_theta vx vy vz
1 17.4373 20.4178 0 -8 1 0 2.90813 -1.62802 -0.00328869 0
2 25.4447 24.4343 0 7 -1 0 6.28345 1.04776 -0.0646487 0
ITEM: TIMESTEP
114000
ITEM: NUMBER OF ATOMS
2
ITEM: BOX BOUNDS pp pp pp
0.0000000000000000e+00 3.0000000000000000e+01
0.0000000000000000e+00 3.0000000000000000e+01
-5.0000000000000000e-01 5.0000000000000000e-01
ITEM: ATOMS id x y z ix iy iz v_theta vx vy vz
1 16.4043 20.6355 0 -8 1 0 3.02533 -0.863573 0.44637 0
2 26.445 24.4512 0 7 -1 0 6.31004 1.03051 0.281984 0
ITEM: TIMESTEP
115000
ITEM: NUMBER OF ATOMS
2
ITEM: BOX BOUNDS pp pp pp
0.0000000000000000e+00 3.0000000000000000e+01
0.0000000000000000e+00 3.0000000000000000e+01
-5.0000000000000000e-01 5.0000000000000000e-01
ITEM: ATOMS id x y z ix iy iz v_theta vx vy vz
1 15.3835 20.5455 0 -8 1 0 2.77751 -0.930766 0.342375 0
2 27.5714 24.4712 0 7 -1 0 6.12956 1.0399 -0.527582 0
ITEM: TIMESTEP
116000
ITEM: NUMBER OF ATOMS
2
ITEM: BOX BOUNDS pp pp pp
0.0000000000000000e+00 3.0000000000000000e+01
0.0000000000000000e+00 3.0000000000000000e+01
-5.0000000000000000e-01 5.0000000000000000e-01
ITEM: ATOMS id x y z ix iy iz v_theta vx vy vz
1 14.5858 21.0121 0 -8 1 0 1.9329 -0.957574 0.737513 0
2 28.541 24.1781 0 7 -1 0 6.06349 0.913546 -0.0133231 0
ITEM: TIMESTEP
117000
ITEM: NUMBER OF ATOMS
2
ITEM: BOX BOUNDS pp pp pp
0.0000000000000000e+00 3.0000000000000000e+01
0.0000000000000000e+00 3.0000000000000000e+01
-5.0000000000000000e-01 5.0000000000000000e-01
ITEM: ATOMS id x y z ix iy iz v_theta vx vy vz
1 14.2688 21.8809 0 -8 1 0 1.5418 0.0185113 1.43807 0
2 29.3067 23.778 0 7 -1 0 5.44992 0.616387 -0.695434 0
ITEM: TIMESTEP
118000
ITEM: NUMBER OF ATOMS
2
ITEM: BOX BOUNDS pp pp pp
0.0000000000000000e+00 3.0000000000000000e+01
0.0000000000000000e+00 3.0000000000000000e+01
-5.0000000000000000e-01 5.0000000000000000e-01
ITEM: ATOMS id x y z ix iy iz v_theta vx vy vz
1 14.1053 22.799 0 -8 1 0 1.66262 -0.058754 0.830658 0
2 29.7208 22.993 0 7 -1 0 4.98293 0.0669042 -0.839764 0
ITEM: TIMESTEP
119000
ITEM: NUMBER OF ATOMS
2
ITEM: BOX BOUNDS pp pp pp
0.0000000000000000e+00 3.0000000000000000e+01
0.0000000000000000e+00 3.0000000000000000e+01
-5.0000000000000000e-01 5.0000000000000000e-01
ITEM: ATOMS id x y z ix iy iz v_theta vx vy vz
2 29.8397 21.9277 0 7 -1 0 4.27303 -0.222981 -1.22915 0
1 14.1122 23.8976 0 -8 1 0 1.49093 0.0955618 1.21146 0
ITEM: TIMESTEP
120000
ITEM: NUMBER OF ATOMS
2
ITEM: BOX BOUNDS pp pp pp
0.0000000000000000e+00 3.0000000000000000e+01
0.0000000000000000e+00 3.0000000000000000e+01
-5.0000000000000000e-01 5.0000000000000000e-01
ITEM: ATOMS id x y z ix iy iz v_theta vx vy vz
2 29.3189 21.2084 0 7 -1 0 4.00609 -0.498786 -0.970057 0
1 13.8278 24.876 0 -8 1 0 1.85937 -0.139766 0.96287 0
ITEM: TIMESTEP
121000
ITEM: NUMBER OF ATOMS
2
ITEM: BOX BOUNDS pp pp pp
0.0000000000000000e+00 3.0000000000000000e+01
0.0000000000000000e+00 3.0000000000000000e+01
-5.0000000000000000e-01 5.0000000000000000e-01
ITEM: ATOMS id x y z ix iy iz v_theta vx vy vz
2 28.4993 20.5176 0 7 -1 0 3.91682 -0.41138 -0.582159 0
1 13.3923 25.7191 0 -8 1 0 2.39791 -0.429219 0.821842 0
ITEM: TIMESTEP
122000
ITEM: NUMBER OF ATOMS
2
ITEM: BOX BOUNDS pp pp pp
0.0000000000000000e+00 3.0000000000000000e+01
0.0000000000000000e+00 3.0000000000000000e+01
-5.0000000000000000e-01 5.0000000000000000e-01
ITEM: ATOMS id x y z ix iy iz v_theta vx vy vz
2 27.7184 19.9534 0 7 -1 0 3.34945 -0.956665 -0.482444 0
1 13.0651 26.7299 0 -8 1 0 1.86222 -0.209596 1.31731 0
ITEM: TIMESTEP
123000
ITEM: NUMBER OF ATOMS
2
ITEM: BOX BOUNDS pp pp pp
0.0000000000000000e+00 3.0000000000000000e+01
0.0000000000000000e+00 3.0000000000000000e+01
-5.0000000000000000e-01 5.0000000000000000e-01
ITEM: ATOMS id x y z ix iy iz v_theta vx vy vz
2 26.5521 20.0521 0 7 -1 0 2.54925 -0.951899 0.322753 0
1 12.859 27.579 0 -8 1 0 1.93862 -0.0859966 0.931948 0
ITEM: TIMESTEP
124000
ITEM: NUMBER OF ATOMS
2
ITEM: BOX BOUNDS pp pp pp
0.0000000000000000e+00 3.0000000000000000e+01
0.0000000000000000e+00 3.0000000000000000e+01
-5.0000000000000000e-01 5.0000000000000000e-01
ITEM: ATOMS id x y z ix iy iz v_theta vx vy vz
2 25.7116 20.5386 0 7 -1 0 2.9523 -1.02104 -0.00218831 0
1 12.4562 28.5091 0 -8 1 0 1.99995 -0.866385 0.811327 0
ITEM: TIMESTEP
125000
ITEM: NUMBER OF ATOMS
2
ITEM: BOX BOUNDS pp pp pp
0.0000000000000000e+00 3.0000000000000000e+01
0.0000000000000000e+00 3.0000000000000000e+01
-5.0000000000000000e-01 5.0000000000000000e-01
ITEM: ATOMS id x y z ix iy iz v_theta vx vy vz
2 24.649 20.5648 0 7 -1 0 2.78548 -0.96549 0.0373839 0
1 12.151 29.3865 0 -8 1 0 1.67141 -0.0907814 0.84488 0
ITEM: TIMESTEP
126000
ITEM: NUMBER OF ATOMS
2
ITEM: BOX BOUNDS pp pp pp
0.0000000000000000e+00 3.0000000000000000e+01
0.0000000000000000e+00 3.0000000000000000e+01
-5.0000000000000000e-01 5.0000000000000000e-01
ITEM: ATOMS id x y z ix iy iz v_theta vx vy vz
2 23.6882 20.9232 0 7 -1 0 3.05575 -1.31118 0.0551887 0
1 11.8845 30.0627 0 -8 1 0 1.94551 -0.0436671 0.450732 0
ITEM: TIMESTEP
127000
ITEM: NUMBER OF ATOMS
2
ITEM: BOX BOUNDS pp pp pp
0.0000000000000000e+00 3.0000000000000000e+01
0.0000000000000000e+00 3.0000000000000000e+01
-5.0000000000000000e-01 5.0000000000000000e-01
ITEM: ATOMS id x y z ix iy iz v_theta vx vy vz
1 11.284 0.746449 0 -8 2 0 1.96753 -0.833824 0.37768 0
2 22.6506 21.0803 0 7 -1 0 2.5531 -0.647052 0.614746 0
ITEM: TIMESTEP
128000
ITEM: NUMBER OF ATOMS
2
ITEM: BOX BOUNDS pp pp pp
0.0000000000000000e+00 3.0000000000000000e+01
0.0000000000000000e+00 3.0000000000000000e+01
-5.0000000000000000e-01 5.0000000000000000e-01
ITEM: ATOMS id x y z ix iy iz v_theta vx vy vz
1 10.7103 1.53886 0 -8 2 0 2.02932 -0.366057 1.07744 0
2 21.9661 21.726 0 7 -1 0 2.48873 -0.706071 0.847211 0
ITEM: TIMESTEP
129000
ITEM: NUMBER OF ATOMS
2
ITEM: BOX BOUNDS pp pp pp
0.0000000000000000e+00 3.0000000000000000e+01
0.0000000000000000e+00 3.0000000000000000e+01
-5.0000000000000000e-01 5.0000000000000000e-01
ITEM: ATOMS id x y z ix iy iz v_theta vx vy vz
1 10.0656 2.24914 0 -8 2 0 2.14858 -0.748513 0.973011 0
2 21.1967 22.2801 0 7 -1 0 2.65871 -1.0533 0.365483 0
ITEM: TIMESTEP
130000
ITEM: NUMBER OF ATOMS
2
ITEM: BOX BOUNDS pp pp pp
0.0000000000000000e+00 3.0000000000000000e+01
0.0000000000000000e+00 3.0000000000000000e+01
-5.0000000000000000e-01 5.0000000000000000e-01
ITEM: ATOMS id x y z ix iy iz v_theta vx vy vz
1 9.60689 3.13117 0 -8 2 0 1.68509 -0.12065 1.03203 0
2 20.5756 23.1079 0 7 -1 0 2.18177 -0.533332 0.664246 0
ITEM: TIMESTEP
131000
ITEM: NUMBER OF ATOMS
2
ITEM: BOX BOUNDS pp pp pp
0.0000000000000000e+00 3.0000000000000000e+01
0.0000000000000000e+00 3.0000000000000000e+01
-5.0000000000000000e-01 5.0000000000000000e-01
ITEM: ATOMS id x y z ix iy iz v_theta vx vy vz
1 9.39772 4.06093 0 -8 2 0 2.08635 -0.241794 0.627515 0
2 20.0495 23.7658 0 7 -1 0 2.07036 -0.66759 0.967364 0
ITEM: TIMESTEP
132000
ITEM: NUMBER OF ATOMS
2
ITEM: BOX BOUNDS pp pp pp
0.0000000000000000e+00 3.0000000000000000e+01
0.0000000000000000e+00 3.0000000000000000e+01
-5.0000000000000000e-01 5.0000000000000000e-01
ITEM: ATOMS id x y z ix iy iz v_theta vx vy vz
1 8.76302 4.89566 0 -8 2 0 2.38131 -0.782868 0.981623 0
2 19.2549 24.3849 0 7 -1 0 2.71546 -0.955274 0.309351 0
ITEM: TIMESTEP
133000
ITEM: NUMBER OF ATOMS
2
ITEM: BOX BOUNDS pp pp pp
0.0000000000000000e+00 3.0000000000000000e+01
0.0000000000000000e+00 3.0000000000000000e+01
-5.0000000000000000e-01 5.0000000000000000e-01
ITEM: ATOMS id x y z ix iy iz v_theta vx vy vz
1 8.10418 5.61183 0 -8 2 0 2.50497 -0.780108 0.427831 0
2 18.3786 24.6819 0 7 -1 0 3.08609 -0.85691 0.0386843 0
ITEM: TIMESTEP
134000
ITEM: NUMBER OF ATOMS
2
ITEM: BOX BOUNDS pp pp pp
0.0000000000000000e+00 3.0000000000000000e+01
0.0000000000000000e+00 3.0000000000000000e+01
-5.0000000000000000e-01 5.0000000000000000e-01
ITEM: ATOMS id x y z ix iy iz v_theta vx vy vz
1 6.97633 5.96299 0 -8 2 0 3.12152 -0.742276 0.251217 0
2 17.4723 24.4407 0 7 -1 0 3.52002 -0.803313 -0.545958 0
ITEM: TIMESTEP
135000
ITEM: NUMBER OF ATOMS
2
ITEM: BOX BOUNDS pp pp pp
0.0000000000000000e+00 3.0000000000000000e+01
0.0000000000000000e+00 3.0000000000000000e+01
-5.0000000000000000e-01 5.0000000000000000e-01
ITEM: ATOMS id x y z ix iy iz v_theta vx vy vz
1 5.9308 6.17655 0 -8 2 0 2.8535 -1.56863 0.0971641 0
2 16.5101 24.0126 0 7 -1 0 3.61018 -1.50257 -0.257941 0
ITEM: TIMESTEP
136000
ITEM: NUMBER OF ATOMS
2
ITEM: BOX BOUNDS pp pp pp
0.0000000000000000e+00 3.0000000000000000e+01
0.0000000000000000e+00 3.0000000000000000e+01
-5.0000000000000000e-01 5.0000000000000000e-01
ITEM: ATOMS id x y z ix iy iz v_theta vx vy vz
1 4.97073 6.17857 0 -8 2 0 3.17544 -0.634977 -0.0963842 0
2 15.4023 23.5901 0 7 -1 0 3.76951 -0.802762 -0.439061 0
ITEM: TIMESTEP
137000
ITEM: NUMBER OF ATOMS
2
ITEM: BOX BOUNDS pp pp pp
0.0000000000000000e+00 3.0000000000000000e+01
0.0000000000000000e+00 3.0000000000000000e+01
-5.0000000000000000e-01 5.0000000000000000e-01
ITEM: ATOMS id x y z ix iy iz v_theta vx vy vz
1 4.24453 5.961 0 -8 2 0 3.76721 -0.825314 -0.520379 0
2 14.3839 23.1569 0 7 -1 0 3.90279 -0.963551 -0.490705 0
ITEM: TIMESTEP
138000
ITEM: NUMBER OF ATOMS
2
ITEM: BOX BOUNDS pp pp pp
0.0000000000000000e+00 3.0000000000000000e+01
0.0000000000000000e+00 3.0000000000000000e+01
-5.0000000000000000e-01 5.0000000000000000e-01
ITEM: ATOMS id x y z ix iy iz v_theta vx vy vz
1 3.56521 5.43617 0 -8 2 0 3.57626 -0.368165 -0.64163 0
2 13.4485 22.7111 0 7 -1 0 3.38604 -0.568878 -0.320684 0
ITEM: TIMESTEP
139000
ITEM: NUMBER OF ATOMS
2
ITEM: BOX BOUNDS pp pp pp
0.0000000000000000e+00 3.0000000000000000e+01
0.0000000000000000e+00 3.0000000000000000e+01
-5.0000000000000000e-01 5.0000000000000000e-01
ITEM: ATOMS id x y z ix iy iz v_theta vx vy vz
1 2.5952 5.01647 0 -8 2 0 3.37541 -1.1367 -0.62392 0
2 12.4897 22.9145 0 7 -1 0 2.29235 -0.741089 0.388244 0
ITEM: TIMESTEP
140000
ITEM: NUMBER OF ATOMS
2
ITEM: BOX BOUNDS pp pp pp
0.0000000000000000e+00 3.0000000000000000e+01
0.0000000000000000e+00 3.0000000000000000e+01
-5.0000000000000000e-01 5.0000000000000000e-01
ITEM: ATOMS id x y z ix iy iz v_theta vx vy vz
1 1.59242 4.57679 0 -8 2 0 3.43471 -1.26773 -0.39135 0
2 11.965 23.7248 0 7 -1 0 1.95874 -0.61962 0.874767 0
ITEM: TIMESTEP
141000
ITEM: NUMBER OF ATOMS
2
ITEM: BOX BOUNDS pp pp pp
0.0000000000000000e+00 3.0000000000000000e+01
0.0000000000000000e+00 3.0000000000000000e+01
-5.0000000000000000e-01 5.0000000000000000e-01
ITEM: ATOMS id x y z ix iy iz v_theta vx vy vz
1 0.744603 4.25731 0 -8 2 0 3.42611 -0.919431 -0.0661379 0
2 11.8533 24.6676 0 7 -1 0 1.39569 0.244931 1.2202 0
ITEM: TIMESTEP
142000
ITEM: NUMBER OF ATOMS
2
ITEM: BOX BOUNDS pp pp pp
0.0000000000000000e+00 3.0000000000000000e+01
0.0000000000000000e+00 3.0000000000000000e+01
-5.0000000000000000e-01 5.0000000000000000e-01
ITEM: ATOMS id x y z ix iy iz v_theta vx vy vz
1 29.7847 4.02434 0 -9 2 0 3.37254 -1.23795 -0.332144 0
2 12.1301 25.6811 0 7 -1 0 1.13596 0.843619 0.733094 0
ITEM: TIMESTEP
143000
ITEM: NUMBER OF ATOMS
2
ITEM: BOX BOUNDS pp pp pp
0.0000000000000000e+00 3.0000000000000000e+01
0.0000000000000000e+00 3.0000000000000000e+01
-5.0000000000000000e-01 5.0000000000000000e-01
ITEM: ATOMS id x y z ix iy iz v_theta vx vy vz
1 28.8481 3.95115 0 -9 2 0 3.20229 -1.28073 0.241953 0
2 12.4633 26.4061 0 7 -1 0 1.26396 0.276179 0.871497 0
ITEM: TIMESTEP
144000
ITEM: NUMBER OF ATOMS
2
ITEM: BOX BOUNDS pp pp pp
0.0000000000000000e+00 3.0000000000000000e+01
0.0000000000000000e+00 3.0000000000000000e+01
-5.0000000000000000e-01 5.0000000000000000e-01
ITEM: ATOMS id x y z ix iy iz v_theta vx vy vz
1 27.7489 3.93235 0 -9 2 0 2.9362 -1.0432 -0.037442 0
2 12.6132 27.1991 0 7 -1 0 1.76981 0.0230236 0.844921 0
ITEM: TIMESTEP
145000
ITEM: NUMBER OF ATOMS
2
ITEM: BOX BOUNDS pp pp pp
0.0000000000000000e+00 3.0000000000000000e+01
0.0000000000000000e+00 3.0000000000000000e+01
-5.0000000000000000e-01 5.0000000000000000e-01
ITEM: ATOMS id x y z ix iy iz v_theta vx vy vz
1 26.7383 3.83718 0 -9 2 0 3.37697 -1.01351 -0.149952 0
2 12.2768 28.123 0 7 -1 0 2.21506 -0.954568 1.49073 0
ITEM: TIMESTEP
146000
ITEM: NUMBER OF ATOMS
2
ITEM: BOX BOUNDS pp pp pp
0.0000000000000000e+00 3.0000000000000000e+01
0.0000000000000000e+00 3.0000000000000000e+01
-5.0000000000000000e-01 5.0000000000000000e-01
ITEM: ATOMS id x y z ix iy iz v_theta vx vy vz
1 25.9166 3.48275 0 -9 2 0 3.18624 -0.956555 -0.132906 0
2 12.0454 29.1046 0 7 -1 0 1.84415 -0.592488 0.898915 0
ITEM: TIMESTEP
147000
ITEM: NUMBER OF ATOMS
2
ITEM: BOX BOUNDS pp pp pp
0.0000000000000000e+00 3.0000000000000000e+01
0.0000000000000000e+00 3.0000000000000000e+01
-5.0000000000000000e-01 5.0000000000000000e-01
ITEM: ATOMS id x y z ix iy iz v_theta vx vy vz
1 24.8109 3.65172 0 -9 2 0 3.22073 -0.992497 0.248012 0
2 12.1446 30.1827 0 7 -1 0 1.51152 0.170433 0.932757 0
ITEM: TIMESTEP
148000
ITEM: NUMBER OF ATOMS
2
ITEM: BOX BOUNDS pp pp pp
0.0000000000000000e+00 3.0000000000000000e+01
0.0000000000000000e+00 3.0000000000000000e+01
-5.0000000000000000e-01 5.0000000000000000e-01
ITEM: ATOMS id x y z ix iy iz v_theta vx vy vz
2 12.4886 1.14184 0 7 0 0 0.792804 0.567299 0.649182 0
1 23.9081 3.43356 0 -9 2 0 3.26212 -0.966708 -0.256735 0
ITEM: TIMESTEP
149000
ITEM: NUMBER OF ATOMS
2
ITEM: BOX BOUNDS pp pp pp
0.0000000000000000e+00 3.0000000000000000e+01
0.0000000000000000e+00 3.0000000000000000e+01
-5.0000000000000000e-01 5.0000000000000000e-01
ITEM: ATOMS id x y z ix iy iz v_theta vx vy vz
2 13.4451 1.53424 0 7 0 0 0.292977 0.764184 0.725266 0
1 23.0851 3.01926 0 -9 2 0 3.87441 -0.472717 -0.710681 0
ITEM: TIMESTEP
150000
ITEM: NUMBER OF ATOMS
2
ITEM: BOX BOUNDS pp pp pp
0.0000000000000000e+00 3.0000000000000000e+01
0.0000000000000000e+00 3.0000000000000000e+01
-5.0000000000000000e-01 5.0000000000000000e-01
ITEM: ATOMS id x y z ix iy iz v_theta vx vy vz
2 14.2188 2.23113 0 7 0 0 0.497503 0.891184 0.658972 0
1 22.4728 2.26003 0 -9 2 0 4.36777 -0.319731 -1.13587 0
ITEM: TIMESTEP
151000
ITEM: NUMBER OF ATOMS
2
ITEM: BOX BOUNDS pp pp pp
0.0000000000000000e+00 3.0000000000000000e+01
0.0000000000000000e+00 3.0000000000000000e+01
-5.0000000000000000e-01 5.0000000000000000e-01
ITEM: ATOMS id x y z ix iy iz v_theta vx vy vz
2 15.109 2.93935 0 7 0 0 0.779826 0.897205 0.607426 0
1 22.3297 1.28765 0 -9 2 0 4.58161 0.00124676 -1.065 0
ITEM: TIMESTEP
152000
ITEM: NUMBER OF ATOMS
2
ITEM: BOX BOUNDS pp pp pp
0.0000000000000000e+00 3.0000000000000000e+01
0.0000000000000000e+00 3.0000000000000000e+01
-5.0000000000000000e-01 5.0000000000000000e-01
ITEM: ATOMS id x y z ix iy iz v_theta vx vy vz
1 22.1839 0.335274 0 -9 2 0 4.57054 -0.432174 -0.625157 0
2 15.901 3.4402 0 7 0 0 0.469572 0.761026 0.393686 0
ITEM: TIMESTEP
153000
ITEM: NUMBER OF ATOMS
2
ITEM: BOX BOUNDS pp pp pp
0.0000000000000000e+00 3.0000000000000000e+01
0.0000000000000000e+00 3.0000000000000000e+01
-5.0000000000000000e-01 5.0000000000000000e-01
ITEM: ATOMS id x y z ix iy iz v_theta vx vy vz
1 21.6475 29.3201 0 -9 1 0 4.19574 -0.486985 -0.979592 0
2 16.6506 4.2353 0 7 0 0 0.930834 0.898015 0.497402 0
ITEM: TIMESTEP
154000
ITEM: NUMBER OF ATOMS
2
ITEM: BOX BOUNDS pp pp pp
0.0000000000000000e+00 3.0000000000000000e+01
0.0000000000000000e+00 3.0000000000000000e+01
-5.0000000000000000e-01 5.0000000000000000e-01
ITEM: ATOMS id x y z ix iy iz v_theta vx vy vz
2 17.3115 5.13812 0 7 0 0 1.40895 0.585643 1.19941 0
1 21.1699 28.539 0 -9 1 0 4.18185 -0.548453 -0.827444 0
ITEM: TIMESTEP
155000
ITEM: NUMBER OF ATOMS
2
ITEM: BOX BOUNDS pp pp pp
0.0000000000000000e+00 3.0000000000000000e+01
0.0000000000000000e+00 3.0000000000000000e+01
-5.0000000000000000e-01 5.0000000000000000e-01
ITEM: ATOMS id x y z ix iy iz v_theta vx vy vz
2 17.5926 6.11124 0 7 0 0 1.24522 0.600375 1.41461 0
1 20.5623 27.8041 0 -9 1 0 4.37941 -0.434471 -0.875285 0
ITEM: TIMESTEP
156000
ITEM: NUMBER OF ATOMS
2
ITEM: BOX BOUNDS pp pp pp
0.0000000000000000e+00 3.0000000000000000e+01
0.0000000000000000e+00 3.0000000000000000e+01
-5.0000000000000000e-01 5.0000000000000000e-01
ITEM: ATOMS id x y z ix iy iz v_theta vx vy vz
2 17.8343 7.11303 0 7 0 0 1.23143 0.551916 0.928333 0
1 20.1337 26.9889 0 -9 1 0 4.10749 -0.624261 -0.816848 0
ITEM: TIMESTEP
157000
ITEM: NUMBER OF ATOMS
2
ITEM: BOX BOUNDS pp pp pp
0.0000000000000000e+00 3.0000000000000000e+01
0.0000000000000000e+00 3.0000000000000000e+01
-5.0000000000000000e-01 5.0000000000000000e-01
ITEM: ATOMS id x y z ix iy iz v_theta vx vy vz
2 18.2378 7.94949 0 7 0 0 0.970561 0.151616 0.779838 0
1 19.4826 26.3624 0 -9 1 0 3.32152 -1.10849 -0.47872 0
ITEM: TIMESTEP
158000
ITEM: NUMBER OF ATOMS
2
ITEM: BOX BOUNDS pp pp pp
0.0000000000000000e+00 3.0000000000000000e+01
0.0000000000000000e+00 3.0000000000000000e+01
-5.0000000000000000e-01 5.0000000000000000e-01
ITEM: ATOMS id x y z ix iy iz v_theta vx vy vz
2 18.5779 8.91468 0 7 0 0 1.62612 -0.0321001 0.892787 0
1 18.5054 26.3148 0 -9 1 0 3.16748 -1.0262 0.103341 0
ITEM: TIMESTEP
159000
ITEM: NUMBER OF ATOMS
2
ITEM: BOX BOUNDS pp pp pp
0.0000000000000000e+00 3.0000000000000000e+01
0.0000000000000000e+00 3.0000000000000000e+01
-5.0000000000000000e-01 5.0000000000000000e-01
ITEM: ATOMS id x y z ix iy iz v_theta vx vy vz
2 18.6174 9.92628 0 7 0 0 1.31524 0.494446 0.617488 0
1 17.6392 26.4763 0 -9 1 0 2.83539 -1.32763 0.344135 0
ITEM: TIMESTEP
160000
ITEM: NUMBER OF ATOMS
2
ITEM: BOX BOUNDS pp pp pp
0.0000000000000000e+00 3.0000000000000000e+01
0.0000000000000000e+00 3.0000000000000000e+01
-5.0000000000000000e-01 5.0000000000000000e-01
ITEM: ATOMS id x y z ix iy iz v_theta vx vy vz
2 18.7921 10.9216 0 7 0 0 1.89659 -0.257903 0.703898 0
1 16.5095 26.8037 0 -9 1 0 2.96429 -1.19925 0.381654 0
ITEM: TIMESTEP
161000
ITEM: NUMBER OF ATOMS
2
ITEM: BOX BOUNDS pp pp pp
0.0000000000000000e+00 3.0000000000000000e+01
0.0000000000000000e+00 3.0000000000000000e+01
-5.0000000000000000e-01 5.0000000000000000e-01
ITEM: ATOMS id x y z ix iy iz v_theta vx vy vz
2 18.4272 11.8711 0 7 0 0 2.16681 -0.2883 0.954085 0
1 15.6234 26.8516 0 -9 1 0 2.66652 -0.567684 0.456641 0
ITEM: TIMESTEP
162000
ITEM: NUMBER OF ATOMS
2
ITEM: BOX BOUNDS pp pp pp
0.0000000000000000e+00 3.0000000000000000e+01
0.0000000000000000e+00 3.0000000000000000e+01
-5.0000000000000000e-01 5.0000000000000000e-01
ITEM: ATOMS id x y z ix iy iz v_theta vx vy vz
2 18.011 12.5903 0 7 0 0 1.77058 -0.185509 0.972596 0
1 14.7108 26.8384 0 -9 1 0 2.89916 -0.576214 -0.122254 0
ITEM: TIMESTEP
163000
ITEM: NUMBER OF ATOMS
2
ITEM: BOX BOUNDS pp pp pp
0.0000000000000000e+00 3.0000000000000000e+01
0.0000000000000000e+00 3.0000000000000000e+01
-5.0000000000000000e-01 5.0000000000000000e-01
ITEM: ATOMS id x y z ix iy iz v_theta vx vy vz
2 18.1174 13.3856 0 7 0 0 1.80285 -0.0202133 0.760703 0
1 13.7654 27.023 0 -9 1 0 3.02991 -0.73188 -0.0286973 0
ITEM: TIMESTEP
164000
ITEM: NUMBER OF ATOMS
2
ITEM: BOX BOUNDS pp pp pp
0.0000000000000000e+00 3.0000000000000000e+01
0.0000000000000000e+00 3.0000000000000000e+01
-5.0000000000000000e-01 5.0000000000000000e-01
ITEM: ATOMS id x y z ix iy iz v_theta vx vy vz
2 17.8817 14.4718 0 7 0 0 1.85393 -0.233805 0.805606 0
1 12.8309 27.2449 0 -9 1 0 2.71438 -0.579247 0.218516 0
ITEM: TIMESTEP
165000
ITEM: NUMBER OF ATOMS
2
ITEM: BOX BOUNDS pp pp pp
0.0000000000000000e+00 3.0000000000000000e+01
0.0000000000000000e+00 3.0000000000000000e+01
-5.0000000000000000e-01 5.0000000000000000e-01
ITEM: ATOMS id x y z ix iy iz v_theta vx vy vz
2 17.3018 15.1196 0 7 0 0 2.33875 -0.631809 0.816981 0
1 12.287 28.0109 0 -9 1 0 2.38468 -0.272722 0.741206 0
ITEM: TIMESTEP
166000
ITEM: NUMBER OF ATOMS
2
ITEM: BOX BOUNDS pp pp pp
0.0000000000000000e+00 3.0000000000000000e+01
0.0000000000000000e+00 3.0000000000000000e+01
-5.0000000000000000e-01 5.0000000000000000e-01
ITEM: ATOMS id x y z ix iy iz v_theta vx vy vz
2 16.7462 15.6726 0 7 0 0 2.70742 -0.788653 0.0720534 0
1 11.8583 28.7993 0 -9 1 0 1.54611 -0.13568 1.18174 0
ITEM: TIMESTEP
167000
ITEM: NUMBER OF ATOMS
2
ITEM: BOX BOUNDS pp pp pp
0.0000000000000000e+00 3.0000000000000000e+01
0.0000000000000000e+00 3.0000000000000000e+01
-5.0000000000000000e-01 5.0000000000000000e-01
ITEM: ATOMS id x y z ix iy iz v_theta vx vy vz
2 15.9673 16.2252 0 7 0 0 2.26627 -0.82528 1.06494 0
1 12.0601 29.8687 0 -9 1 0 1.53748 0.330705 0.96166 0
ITEM: TIMESTEP
168000
ITEM: NUMBER OF ATOMS
2
ITEM: BOX BOUNDS pp pp pp
0.0000000000000000e+00 3.0000000000000000e+01
0.0000000000000000e+00 3.0000000000000000e+01
-5.0000000000000000e-01 5.0000000000000000e-01
ITEM: ATOMS id x y z ix iy iz v_theta vx vy vz
1 11.7417 0.855652 0 -9 2 0 2.3618 -0.725731 0.772664 0
2 15.448 16.9552 0 7 0 0 1.7673 -0.446793 0.913825 0
ITEM: TIMESTEP
169000
ITEM: NUMBER OF ATOMS
2
ITEM: BOX BOUNDS pp pp pp
0.0000000000000000e+00 3.0000000000000000e+01
0.0000000000000000e+00 3.0000000000000000e+01
-5.0000000000000000e-01 5.0000000000000000e-01
ITEM: ATOMS id x y z ix iy iz v_theta vx vy vz
1 10.7273 0.899351 0 -9 2 0 3.0824 -1.0296 0.184188 0
2 15.018 17.8443 0 7 0 0 2.12436 -0.527072 0.67633 0
ITEM: TIMESTEP
170000
ITEM: NUMBER OF ATOMS
2
ITEM: BOX BOUNDS pp pp pp
0.0000000000000000e+00 3.0000000000000000e+01
0.0000000000000000e+00 3.0000000000000000e+01
-5.0000000000000000e-01 5.0000000000000000e-01
ITEM: ATOMS id x y z ix iy iz v_theta vx vy vz
1 9.69402 1.05007 0 -9 2 0 3.16747 -0.93391 -0.0864952 0
2 14.6319 18.7185 0 7 0 0 1.52436 -0.15083 0.489168 0
ITEM: TIMESTEP
171000
ITEM: NUMBER OF ATOMS
2
ITEM: BOX BOUNDS pp pp pp
0.0000000000000000e+00 3.0000000000000000e+01
0.0000000000000000e+00 3.0000000000000000e+01
-5.0000000000000000e-01 5.0000000000000000e-01
ITEM: ATOMS id x y z ix iy iz v_theta vx vy vz
1 8.73484 0.899659 0 -9 2 0 3.65617 -0.916129 -0.305493 0
2 14.4318 19.7488 0 7 0 0 1.89702 -0.398597 1.15824 0
ITEM: TIMESTEP
172000
ITEM: NUMBER OF ATOMS
2
ITEM: BOX BOUNDS pp pp pp
0.0000000000000000e+00 3.0000000000000000e+01
0.0000000000000000e+00 3.0000000000000000e+01
-5.0000000000000000e-01 5.0000000000000000e-01
ITEM: ATOMS id x y z ix iy iz v_theta vx vy vz
1 7.69998 0.717616 0 -9 2 0 3.42953 -0.848673 -0.246985 0
2 14.1403 20.7177 0 7 0 0 1.75079 -0.318814 1.54245 0
ITEM: TIMESTEP
173000
ITEM: NUMBER OF ATOMS
2
ITEM: BOX BOUNDS pp pp pp
0.0000000000000000e+00 3.0000000000000000e+01
0.0000000000000000e+00 3.0000000000000000e+01
-5.0000000000000000e-01 5.0000000000000000e-01
ITEM: ATOMS id x y z ix iy iz v_theta vx vy vz
1 6.89843 0.530248 0 -9 2 0 3.4574 -0.657333 0.0838578 0
2 13.9828 21.7806 0 7 0 0 1.83765 -0.265584 1.3215 0
ITEM: TIMESTEP
174000
ITEM: NUMBER OF ATOMS
2
ITEM: BOX BOUNDS pp pp pp
0.0000000000000000e+00 3.0000000000000000e+01
0.0000000000000000e+00 3.0000000000000000e+01
-5.0000000000000000e-01 5.0000000000000000e-01
ITEM: ATOMS id x y z ix iy iz v_theta vx vy vz
1 6.22699 29.9572 0 -9 1 0 3.53765 -1.20844 -0.362866 0
2 13.2224 22.7141 0 7 0 0 2.20892 -0.667473 0.978484 0
ITEM: TIMESTEP
175000
ITEM: NUMBER OF ATOMS
2
ITEM: BOX BOUNDS pp pp pp
0.0000000000000000e+00 3.0000000000000000e+01
0.0000000000000000e+00 3.0000000000000000e+01
-5.0000000000000000e-01 5.0000000000000000e-01
ITEM: ATOMS id x y z ix iy iz v_theta vx vy vz
2 12.6221 23.6752 0 7 0 0 2.29978 -1.1016 0.532268 0
1 5.2454 29.5541 0 -9 1 0 3.67488 -0.962009 -0.517119 0
ITEM: TIMESTEP
176000
ITEM: NUMBER OF ATOMS
2
ITEM: BOX BOUNDS pp pp pp
0.0000000000000000e+00 3.0000000000000000e+01
0.0000000000000000e+00 3.0000000000000000e+01
-5.0000000000000000e-01 5.0000000000000000e-01
ITEM: ATOMS id x y z ix iy iz v_theta vx vy vz
2 11.8465 24.4808 0 7 0 0 2.33789 -0.998673 0.655889 0
1 4.32027 29.1813 0 -9 1 0 3.48315 -1.29876 -0.0646095 0
ITEM: TIMESTEP
177000
ITEM: NUMBER OF ATOMS
2
ITEM: BOX BOUNDS pp pp pp
0.0000000000000000e+00 3.0000000000000000e+01
0.0000000000000000e+00 3.0000000000000000e+01
-5.0000000000000000e-01 5.0000000000000000e-01
ITEM: ATOMS id x y z ix iy iz v_theta vx vy vz
2 11.1347 25.1941 0 7 0 0 2.19499 -0.520318 1.28733 0
1 3.26806 28.8271 0 -9 1 0 3.96164 -0.592272 -0.349169 0
ITEM: TIMESTEP
178000
ITEM: NUMBER OF ATOMS
2
ITEM: BOX BOUNDS pp pp pp
0.0000000000000000e+00 3.0000000000000000e+01
0.0000000000000000e+00 3.0000000000000000e+01
-5.0000000000000000e-01 5.0000000000000000e-01
ITEM: ATOMS id x y z ix iy iz v_theta vx vy vz
2 10.7238 26.232 0 7 0 0 1.84823 -0.195742 1.01414 0
1 2.48484 28.3041 0 -9 1 0 3.63297 -0.96535 -0.124022 0
ITEM: TIMESTEP
179000
ITEM: NUMBER OF ATOMS
2
ITEM: BOX BOUNDS pp pp pp
0.0000000000000000e+00 3.0000000000000000e+01
0.0000000000000000e+00 3.0000000000000000e+01
-5.0000000000000000e-01 5.0000000000000000e-01
ITEM: ATOMS id x y z ix iy iz v_theta vx vy vz
2 10.4812 27.0782 0 7 0 0 2.08079 -0.577166 0.619785 0
1 1.75074 27.5356 0 -9 1 0 3.8469 -1.15007 -0.922956 0
ITEM: TIMESTEP
180000
ITEM: NUMBER OF ATOMS
2
ITEM: BOX BOUNDS pp pp pp
0.0000000000000000e+00 3.0000000000000000e+01
0.0000000000000000e+00 3.0000000000000000e+01
-5.0000000000000000e-01 5.0000000000000000e-01
ITEM: ATOMS id x y z ix iy iz v_theta vx vy vz
1 0.849373 26.891 0 -9 1 0 3.46762 -1.07888 -0.251638 0
2 10.004 28.0175 0 7 0 0 1.83106 -0.373356 0.64697 0
ITEM: TIMESTEP
181000
ITEM: NUMBER OF ATOMS
2
ITEM: BOX BOUNDS pp pp pp
0.0000000000000000e+00 3.0000000000000000e+01