ITEM: TIMESTEP
100000
ITEM: NUMBER OF ATOMS
2
ITEM: BOX BOUNDS pp pp pp
0.0000000000000000e+00 1.5000000000000000e+01
0.0000000000000000e+00 1.5000000000000000e+01
-5.0000000000000000e-01 5.0000000000000000e-01
ITEM: ATOMS id x y z ix iy iz v_theta vx vy vz
2 7.13689 9.22688 0 10 -1 0 2.31658 -0.106095 -0.289539 0
1 13.4619 10.2111 0 -11 1 0 5.98947 0.106095 0.289539 0
ITEM: TIMESTEP
101000
ITEM: NUMBER OF ATOMS
2
ITEM: BOX BOUNDS pp pp pp
0.0000000000000000e+00 1.5000000000000000e+01
0.0000000000000000e+00 1.5000000000000000e+01
-5.0000000000000000e-01 5.0000000000000000e-01
ITEM: ATOMS id x y z ix iy iz v_theta vx vy vz
2 6.54222 9.69006 0 10 -1 0 2.12009 -0.825422 0.85574 0
1 14.3043 9.99394 0 -11 1 0 6.20322 1.05817 -0.399732 0
ITEM: TIMESTEP
102000
ITEM: NUMBER OF ATOMS
2
ITEM: BOX BOUNDS pp pp pp
0.0000000000000000e+00 1.5000000000000000e+01
0.0000000000000000e+00 1.5000000000000000e+01
-5.0000000000000000e-01 5.0000000000000000e-01
ITEM: ATOMS id x y z ix iy iz v_theta vx vy vz
2 5.83197 10.3768 0 10 -1 0 2.25056 -0.289771 0.98734 0
1 15.2426 10.0296 0 -11 1 0 6.11843 0.884834 -0.260393 0
ITEM: TIMESTEP
103000
ITEM: NUMBER OF ATOMS
2
ITEM: BOX BOUNDS pp pp pp
0.0000000000000000e+00 1.5000000000000000e+01
0.0000000000000000e+00 1.5000000000000000e+01
-5.0000000000000000e-01 5.0000000000000000e-01
ITEM: ATOMS id x y z ix iy iz v_theta vx vy vz
1 1.2009 9.88409 0 -10 1 0 6.22689 1.19863 -0.483934 0
2 5.37021 11.1227 0 10 -1 0 2.07746 -0.287404 1.02808 0
ITEM: TIMESTEP
104000
ITEM: NUMBER OF ATOMS
2
ITEM: BOX BOUNDS pp pp pp
0.0000000000000000e+00 1.5000000000000000e+01
0.0000000000000000e+00 1.5000000000000000e+01
-5.0000000000000000e-01 5.0000000000000000e-01
ITEM: ATOMS id x y z ix iy iz v_theta vx vy vz
1 2.24489 10.0627 0 -10 1 0 6.56616 1.07158 0.0653008 0
2 4.82995 11.8811 0 10 -1 0 2.24215 -0.460902 0.937575 0
ITEM: TIMESTEP
105000
ITEM: NUMBER OF ATOMS
2
ITEM: BOX BOUNDS pp pp pp
0.0000000000000000e+00 1.5000000000000000e+01
0.0000000000000000e+00 1.5000000000000000e+01
-5.0000000000000000e-01 5.0000000000000000e-01
ITEM: ATOMS id x y z ix iy iz v_theta vx vy vz
1 3.08692 10.5684 0 -10 1 0 6.83577 1.01529 0.423265 0
2 4.13215 12.6071 0 10 -1 0 2.62625 -0.626636 1.08016 0
ITEM: TIMESTEP
106000
ITEM: NUMBER OF ATOMS
2
ITEM: BOX BOUNDS pp pp pp
0.0000000000000000e+00 1.5000000000000000e+01
0.0000000000000000e+00 1.5000000000000000e+01
-5.0000000000000000e-01 5.0000000000000000e-01
ITEM: ATOMS id x y z ix iy iz v_theta vx vy vz
1 3.85685 11.1132 0 -10 1 0 7.03405 0.656646 0.805269 0
2 3.21489 13.002 0 10 -1 0 2.5864 -0.842612 0.703678 0
ITEM: TIMESTEP
107000
ITEM: NUMBER OF ATOMS
2
ITEM: BOX BOUNDS pp pp pp
0.0000000000000000e+00 1.5000000000000000e+01
0.0000000000000000e+00 1.5000000000000000e+01
-5.0000000000000000e-01 5.0000000000000000e-01
ITEM: ATOMS id x y z ix iy iz v_theta vx vy vz
1 4.39326 11.8123 0 -10 1 0 7.09849 0.755678 0.667717 0
2 2.44501 13.6012 0 10 -1 0 2.18848 -0.929435 0.920265 0
ITEM: TIMESTEP
108000
ITEM: NUMBER OF ATOMS
2
ITEM: BOX BOUNDS pp pp pp
0.0000000000000000e+00 1.5000000000000000e+01
0.0000000000000000e+00 1.5000000000000000e+01
-5.0000000000000000e-01 5.0000000000000000e-01
ITEM: ATOMS id x y z ix iy iz v_theta vx vy vz
1 5.108 12.4617 0 -10 1 0 6.86348 0.918623 0.649233 0
2 1.87284 14.3665 0 10 -1 0 2.05667 -0.660253 0.803294 0
ITEM: TIMESTEP
109000
ITEM: NUMBER OF ATOMS
2
ITEM: BOX BOUNDS pp pp pp
0.0000000000000000e+00 1.5000000000000000e+01
0.0000000000000000e+00 1.5000000000000000e+01
-5.0000000000000000e-01 5.0000000000000000e-01
ITEM: ATOMS id x y z ix iy iz v_theta vx vy vz
1 5.91601 13.0124 0 -10 1 0 6.96042 0.677048 0.292915 0
2 1.28236 15.1845 0 10 -1 0 2.71244 -0.921833 0.438426 0
ITEM: TIMESTEP
110000
ITEM: NUMBER OF ATOMS
2
ITEM: BOX BOUNDS pp pp pp
0.0000000000000000e+00 1.5000000000000000e+01
0.0000000000000000e+00 1.5000000000000000e+01
-5.0000000000000000e-01 5.0000000000000000e-01
ITEM: ATOMS id x y z ix iy iz v_theta vx vy vz
2 0.497663 0.792707 0 10 0 0 2.29837 -0.900777 0.691954 0
1 6.40921 13.8001 0 -10 1 0 7.10308 0.94427 0.705677 0
ITEM: TIMESTEP
111000
ITEM: NUMBER OF ATOMS
2
ITEM: BOX BOUNDS pp pp pp
0.0000000000000000e+00 1.5000000000000000e+01
0.0000000000000000e+00 1.5000000000000000e+01
-5.0000000000000000e-01 5.0000000000000000e-01
ITEM: ATOMS id x y z ix iy iz v_theta vx vy vz
2 14.848 1.47173 0 9 0 0 2.59764 -0.765111 0.661496 0
1 7.3998 14.5566 0 -10 1 0 6.85286 1.03302 0.521657 0
ITEM: TIMESTEP
112000
ITEM: NUMBER OF ATOMS
2
ITEM: BOX BOUNDS pp pp pp
0.0000000000000000e+00 1.5000000000000000e+01
0.0000000000000000e+00 1.5000000000000000e+01
-5.0000000000000000e-01 5.0000000000000000e-01
ITEM: ATOMS id x y z ix iy iz v_theta vx vy vz
2 14.0714 1.90782 0 9 0 0 3.23375 -1.18747 -0.0831644 0
1 8.33659 14.8348 0 -10 1 0 6.37314 0.883905 0.182239 0
ITEM: TIMESTEP
113000
ITEM: NUMBER OF ATOMS
2
ITEM: BOX BOUNDS pp pp pp
0.0000000000000000e+00 1.5000000000000000e+01
0.0000000000000000e+00 1.5000000000000000e+01
-5.0000000000000000e-01 5.0000000000000000e-01
ITEM: ATOMS id x y z ix iy iz v_theta vx vy vz
2 13.0162 1.89763 0 9 0 0 2.63231 -1.55347 0.258822 0
1 9.43416 14.8146 0 -10 1 0 6.55927 1.05487 0.208555 0
ITEM: TIMESTEP
114000
ITEM: NUMBER OF ATOMS
2
ITEM: BOX BOUNDS pp pp pp
0.0000000000000000e+00 1.5000000000000000e+01
0.0000000000000000e+00 1.5000000000000000e+01
-5.0000000000000000e-01 5.0000000000000000e-01
ITEM: ATOMS id x y z ix iy iz v_theta vx vy vz
2 12.0446 2.38174 0 9 0 0 2.74952 -0.813551 0.716216 0
1 10.4042 15.1036 0 -10 1 0 6.58586 0.988096 0.553092 0
ITEM: TIMESTEP
115000
ITEM: NUMBER OF ATOMS
2
ITEM: BOX BOUNDS pp pp pp
0.0000000000000000e+00 1.5000000000000000e+01
0.0000000000000000e+00 1.5000000000000000e+01
-5.0000000000000000e-01 5.0000000000000000e-01
ITEM: ATOMS id x y z ix iy iz v_theta vx vy vz
1 11.314 0.286973 0 -10 2 0 6.35793 1.01582 0.310529 0
2 11.2442 2.69408 0 9 0 0 2.54913 -0.854078 -0.0967371 0
ITEM: TIMESTEP
116000
ITEM: NUMBER OF ATOMS
2
ITEM: BOX BOUNDS pp pp pp
0.0000000000000000e+00 1.5000000000000000e+01
0.0000000000000000e+00 1.5000000000000000e+01
-5.0000000000000000e-01 5.0000000000000000e-01
ITEM: ATOMS id x y z ix iy iz v_theta vx vy vz
1 12.2855 0.104962 0 -10 2 0 5.51333 0.289687 -0.736878 0
2 10.4536 3.22026 0 9 0 0 2.48307 -0.839091 0.842413 0
ITEM: TIMESTEP
117000
ITEM: NUMBER OF ATOMS
2
ITEM: BOX BOUNDS pp pp pp
0.0000000000000000e+00 1.5000000000000000e+01
0.0000000000000000e+00 1.5000000000000000e+01
-5.0000000000000000e-01 5.0000000000000000e-01
ITEM: ATOMS id x y z ix iy iz v_theta vx vy vz
1 12.5567 14.1953 0 -10 1 0 5.12222 0.169221 -0.498694 0
2 9.84753 4.1289 0 9 0 0 1.8695 -0.220482 1.05867 0
ITEM: TIMESTEP
118000
ITEM: NUMBER OF ATOMS
2
ITEM: BOX BOUNDS pp pp pp
0.0000000000000000e+00 1.5000000000000000e+01
0.0000000000000000e+00 1.5000000000000000e+01
-5.0000000000000000e-01 5.0000000000000000e-01
ITEM: ATOMS id x y z ix iy iz v_theta vx vy vz
2 9.50765 5.0935 0 9 0 0 1.66987 -0.0667099 0.829061 0
1 13.0352 13.3293 0 -10 1 0 4.97567 0.0605256 -0.84095 0
ITEM: TIMESTEP
119000
ITEM: NUMBER OF ATOMS
2
ITEM: BOX BOUNDS pp pp pp
0.0000000000000000e+00 1.5000000000000000e+01
0.0000000000000000e+00 1.5000000000000000e+01
-5.0000000000000000e-01 5.0000000000000000e-01
ITEM: ATOMS id x y z ix iy iz v_theta vx vy vz
2 9.94255 5.92227 0 9 0 0 0.54809 1.06595 0.165569 0
1 13.2575 12.4195 0 -10 1 0 5.21588 0.348999 -0.676548 0
ITEM: TIMESTEP
120000
ITEM: NUMBER OF ATOMS
2
ITEM: BOX BOUNDS pp pp pp
0.0000000000000000e+00 1.5000000000000000e+01
0.0000000000000000e+00 1.5000000000000000e+01
-5.0000000000000000e-01 5.0000000000000000e-01
ITEM: ATOMS id x y z ix iy iz v_theta vx vy vz
2 10.9464 6.32198 0 9 0 0 0.281151 1.13731 0.0184693 0
1 13.5408 11.5827 0 -10 1 0 5.58431 0.819193 -0.687512 0
ITEM: TIMESTEP
121000
ITEM: NUMBER OF ATOMS
2
ITEM: BOX BOUNDS pp pp pp
0.0000000000000000e+00 1.5000000000000000e+01
0.0000000000000000e+00 1.5000000000000000e+01
-5.0000000000000000e-01 5.0000000000000000e-01
ITEM: ATOMS id x y z ix iy iz v_theta vx vy vz
2 11.8221 6.51042 0 9 0 0 0.191873 1.30987 0.255972 0
1 14.5352 11.2349 0 -10 1 0 6.12286 1.27418 -0.0347854 0
ITEM: TIMESTEP
122000
ITEM: NUMBER OF ATOMS
2
ITEM: BOX BOUNDS pp pp pp
0.0000000000000000e+00 1.5000000000000000e+01
0.0000000000000000e+00 1.5000000000000000e+01
-5.0000000000000000e-01 5.0000000000000000e-01
ITEM: ATOMS id x y z ix iy iz v_theta vx vy vz
2 12.887 6.37798 0 9 0 0 -0.37549 0.94683 -0.571555 0
1 0.444644 10.9064 0 -9 1 0 5.58716 0.694012 -0.367999 0
ITEM: TIMESTEP
123000
ITEM: NUMBER OF ATOMS
2
ITEM: BOX BOUNDS pp pp pp
0.0000000000000000e+00 1.5000000000000000e+01
0.0000000000000000e+00 1.5000000000000000e+01
-5.0000000000000000e-01 5.0000000000000000e-01
ITEM: ATOMS id x y z ix iy iz v_theta vx vy vz
2 13.4805 5.87333 0 9 0 0 -1.17569 0.256923 -1.12427 0
1 1.23286 10.1284 0 -9 1 0 5.66356 1.04922 -0.607477 0
ITEM: TIMESTEP
124000
ITEM: NUMBER OF ATOMS
2
ITEM: BOX BOUNDS pp pp pp
0.0000000000000000e+00 1.5000000000000000e+01
0.0000000000000000e+00 1.5000000000000000e+01
-5.0000000000000000e-01 5.0000000000000000e-01
ITEM: ATOMS id x y z ix iy iz v_theta vx vy vz
2 13.995 5.02389 0 9 0 0 -0.772648 0.597342 -1.00533 0
1 2.05597 9.60276 0 -9 1 0 5.7249 0.576969 -0.434689 0
ITEM: TIMESTEP
125000
ITEM: NUMBER OF ATOMS
2
ITEM: BOX BOUNDS pp pp pp
0.0000000000000000e+00 1.5000000000000000e+01
0.0000000000000000e+00 1.5000000000000000e+01
-5.0000000000000000e-01 5.0000000000000000e-01
ITEM: ATOMS id x y z ix iy iz v_theta vx vy vz
2 14.5865 4.09451 0 9 0 0 -0.939466 0.631052 -1.01769 0
1 2.90183 8.96465 0 -9 1 0 5.39635 0.83685 -0.823631 0
ITEM: TIMESTEP
126000
ITEM: NUMBER OF ATOMS
2
ITEM: BOX BOUNDS pp pp pp
0.0000000000000000e+00 1.5000000000000000e+01
0.0000000000000000e+00 1.5000000000000000e+01
-5.0000000000000000e-01 5.0000000000000000e-01
ITEM: ATOMS id x y z ix iy iz v_theta vx vy vz
2 0.254858 3.47185 0 10 0 0 -0.66919 0.417999 -0.756711 0
1 3.68221 8.06935 0 -9 1 0 5.67046 1.09606 -1.08233 0
ITEM: TIMESTEP
127000
ITEM: NUMBER OF ATOMS
2
ITEM: BOX BOUNDS pp pp pp
0.0000000000000000e+00 1.5000000000000000e+01
0.0000000000000000e+00 1.5000000000000000e+01
-5.0000000000000000e-01 5.0000000000000000e-01
ITEM: ATOMS id x y z ix iy iz v_theta vx vy vz
2 0.829873 2.71155 0 10 0 0 -0.734015 0.4085 -1.12076 0
1 4.4515 7.3598 0 -9 1 0 5.25465 0.81472 -0.66368 0
ITEM: TIMESTEP
128000
ITEM: NUMBER OF ATOMS
2
ITEM: BOX BOUNDS pp pp pp
0.0000000000000000e+00 1.5000000000000000e+01
0.0000000000000000e+00 1.5000000000000000e+01
-5.0000000000000000e-01 5.0000000000000000e-01
ITEM: ATOMS id x y z ix iy iz v_theta vx vy vz
2 1.55225 2.0494 0 10 0 0 -0.672229 0.902263 -0.402818 0
1 4.94231 6.47208 0 -9 1 0 5.19028 0.435987 -0.735045 0
ITEM: TIMESTEP
129000
ITEM: NUMBER OF ATOMS
2
ITEM: BOX BOUNDS pp pp pp
0.0000000000000000e+00 1.5000000000000000e+01
0.0000000000000000e+00 1.5000000000000000e+01
-5.0000000000000000e-01 5.0000000000000000e-01
ITEM: ATOMS id x y z ix iy iz v_theta vx vy vz
2 2.49312 1.68574 0 10 0 0 -0.55297 0.712536 -0.311706 0
1 5.50039 5.62563 0 -9 1 0 5.36026 0.41741 -0.91025 0
ITEM: TIMESTEP
130000
ITEM: NUMBER OF ATOMS
2
ITEM: BOX BOUNDS pp pp pp
0.0000000000000000e+00 1.5000000000000000e+01
0.0000000000000000e+00 1.5000000000000000e+01
-5.0000000000000000e-01 5.0000000000000000e-01
ITEM: ATOMS id x y z ix iy iz v_theta vx vy vz
2 3.11988 0.992839 0 10 0 0 -1.01646 0.533992 -0.802821 0
1 5.68367 4.73434 0 -9 1 0 4.88332 0.296255 -1.09948 0
ITEM: TIMESTEP
131000
ITEM: NUMBER OF ATOMS
2
ITEM: BOX BOUNDS pp pp pp
0.0000000000000000e+00 1.5000000000000000e+01
0.0000000000000000e+00 1.5000000000000000e+01
-5.0000000000000000e-01 5.0000000000000000e-01
ITEM: ATOMS id x y z ix iy iz v_theta vx vy vz
2 3.57989 0.104218 0 10 0 0 -0.615203 0.819342 -0.984814 0
1 6.11609 3.73097 0 -9 1 0 4.77191 -0.0805897 -0.891961 0
ITEM: TIMESTEP
132000
ITEM: NUMBER OF ATOMS
2
ITEM: BOX BOUNDS pp pp pp
0.0000000000000000e+00 1.5000000000000000e+01
0.0000000000000000e+00 1.5000000000000000e+01
-5.0000000000000000e-01 5.0000000000000000e-01
ITEM: ATOMS id x y z ix iy iz v_theta vx vy vz
2 4.41553 14.6874 0 10 -1 0 -0.32024 0.904341 0.0161122 0
1 6.51 2.8521 0 -9 1 0 5.41701 0.353898 -1.1197 0
ITEM: TIMESTEP
133000
ITEM: NUMBER OF ATOMS
2
ITEM: BOX BOUNDS pp pp pp
0.0000000000000000e+00 1.5000000000000000e+01
0.0000000000000000e+00 1.5000000000000000e+01
-5.0000000000000000e-01 5.0000000000000000e-01
ITEM: ATOMS id x y z ix iy iz v_theta vx vy vz
1 7.01107 1.93522 0 -9 1 0 5.46562 0.655546 -0.9432 0
2 5.44658 14.4846 0 10 -1 0 0.125446 1.12887 0.0218179 0
ITEM: TIMESTEP
134000
ITEM: NUMBER OF ATOMS
2
ITEM: BOX BOUNDS pp pp pp
0.0000000000000000e+00 1.5000000000000000e+01
0.0000000000000000e+00 1.5000000000000000e+01
-5.0000000000000000e-01 5.0000000000000000e-01
ITEM: ATOMS id x y z ix iy iz v_theta vx vy vz
1 7.67234 1.48008 0 -9 1 0 6.08216 1.20975 -0.0997241 0
2 6.38065 14.8935 0 10 -1 0 0.559377 0.941042 0.411033 0
ITEM: TIMESTEP
135000
ITEM: NUMBER OF ATOMS
2
ITEM: BOX BOUNDS pp pp pp
0.0000000000000000e+00 1.5000000000000000e+01
0.0000000000000000e+00 1.5000000000000000e+01
-5.0000000000000000e-01 5.0000000000000000e-01
ITEM: ATOMS id x y z ix iy iz v_theta vx vy vz
2 7.35913 0.318707 0 10 0 0 0.14994 0.376733 0.0160941 0
1 8.48249 1.51308 0 -9 1 0 6.31374 0.424993 0.0266599 0
ITEM: TIMESTEP
136000
ITEM: NUMBER OF ATOMS
2
ITEM: BOX BOUNDS pp pp pp
0.0000000000000000e+00 1.5000000000000000e+01
0.0000000000000000e+00 1.5000000000000000e+01
-5.0000000000000000e-01 5.0000000000000000e-01
ITEM: ATOMS id x y z ix iy iz v_theta vx vy vz
2 8.28548 0.705131 0 10 0 0 0.471884 1.25876 0.366805 0
1 9.28322 1.39637 0 -9 1 0 6.47307 0.999605 0.297099 0
ITEM: TIMESTEP
137000
ITEM: NUMBER OF ATOMS
2
ITEM: BOX BOUNDS pp pp pp
0.0000000000000000e+00 1.5000000000000000e+01
0.0000000000000000e+00 1.5000000000000000e+01
-5.0000000000000000e-01 5.0000000000000000e-01
ITEM: ATOMS id x y z ix iy iz v_theta vx vy vz
2 9.18039 1.36835 0 10 0 0 1.06365 0.393529 0.91298 0
1 10.1845 1.47295 0 -9 1 0 6.60635 0.8268 0.441664 0
ITEM: TIMESTEP
138000
ITEM: NUMBER OF ATOMS
2
ITEM: BOX BOUNDS pp pp pp
0.0000000000000000e+00 1.5000000000000000e+01
0.0000000000000000e+00 1.5000000000000000e+01
-5.0000000000000000e-01 5.0000000000000000e-01
ITEM: ATOMS id x y z ix iy iz v_theta vx vy vz
2 9.89034 2.19344 0 10 0 0 0.872703 1.10618 0.632095 0
1 11.1102 1.53438 0 -9 1 0 6.0896 1.37263 -0.157242 0
ITEM: TIMESTEP
139000
ITEM: NUMBER OF ATOMS
2
ITEM: BOX BOUNDS pp pp pp
0.0000000000000000e+00 1.5000000000000000e+01
0.0000000000000000e+00 1.5000000000000000e+01
-5.0000000000000000e-01 5.0000000000000000e-01
ITEM: ATOMS id x y z ix iy iz v_theta vx vy vz
1 12.0236 1.13172 0 -9 1 0 5.93623 0.774627 -0.734673 0
2 10.7375 2.69548 0 10 0 0 -0.26847 1.0203 -0.301541 0
ITEM: TIMESTEP
140000
ITEM: NUMBER OF ATOMS
2
ITEM: BOX BOUNDS pp pp pp
0.0000000000000000e+00 1.5000000000000000e+01
0.0000000000000000e+00 1.5000000000000000e+01
-5.0000000000000000e-01 5.0000000000000000e-01
ITEM: ATOMS id x y z ix iy iz v_theta vx vy vz
1 12.9113 0.912512 0 -9 1 0 5.99552 0.637428 -0.226382 0
2 11.55 2.18154 0 10 0 0 -0.60208 0.617386 -0.587106 0
ITEM: TIMESTEP
141000
ITEM: NUMBER OF ATOMS
2
ITEM: BOX BOUNDS pp pp pp
0.0000000000000000e+00 1.5000000000000000e+01
0.0000000000000000e+00 1.5000000000000000e+01
-5.0000000000000000e-01 5.0000000000000000e-01
ITEM: ATOMS id x y z ix iy iz v_theta vx vy vz
1 13.9636 0.781679 0 -9 1 0 5.98693 0.994417 -0.0471488 0
2 12.1986 1.39264 0 10 0 0 -1.16513 0.538752 -0.666205 0
ITEM: TIMESTEP
142000
ITEM: NUMBER OF ATOMS
2
ITEM: BOX BOUNDS pp pp pp
0.0000000000000000e+00 1.5000000000000000e+01
0.0000000000000000e+00 1.5000000000000000e+01
-5.0000000000000000e-01 5.0000000000000000e-01
ITEM: ATOMS id x y z ix iy iz v_theta vx vy vz
1 14.9062 0.405074 0 -9 1 0 5.93336 0.669822 -0.450665 0
2 12.4733 0.500687 0 10 0 0 -1.42486 0.759106 -1.17688 0
ITEM: TIMESTEP
143000
ITEM: NUMBER OF ATOMS
2
ITEM: BOX BOUNDS pp pp pp
0.0000000000000000e+00 1.5000000000000000e+01
0.0000000000000000e+00 1.5000000000000000e+01
-5.0000000000000000e-01 5.0000000000000000e-01
ITEM: ATOMS id x y z ix iy iz v_theta vx vy vz
2 12.693 14.6087 0 10 -1 0 -1.59471 -0.330338 -0.718029 0
1 0.722524 14.9078 0 -8 0 0 6.06096 0.931999 -0.308155 0
ITEM: TIMESTEP
144000
ITEM: NUMBER OF ATOMS
2
ITEM: BOX BOUNDS pp pp pp
0.0000000000000000e+00 1.5000000000000000e+01
0.0000000000000000e+00 1.5000000000000000e+01
-5.0000000000000000e-01 5.0000000000000000e-01
ITEM: ATOMS id x y z ix iy iz v_theta vx vy vz
1 1.61495 14.5633 0 -8 0 0 5.94857 0.907235 -0.39864 0
2 12.6286 13.5527 0 10 -1 0 -1.24255 0.409697 -1.10554 0
ITEM: TIMESTEP
145000
ITEM: NUMBER OF ATOMS
2
ITEM: BOX BOUNDS pp pp pp
0.0000000000000000e+00 1.5000000000000000e+01
0.0000000000000000e+00 1.5000000000000000e+01
-5.0000000000000000e-01 5.0000000000000000e-01
ITEM: ATOMS id x y z ix iy iz v_theta vx vy vz
2 13.4439 12.9267 0 10 -1 0 -0.362392 0.893792 -0.214656 0
1 2.52274 14.1917 0 -8 0 0 5.95443 0.57522 0.347847 0
ITEM: TIMESTEP
146000
ITEM: NUMBER OF ATOMS
2
ITEM: BOX BOUNDS pp pp pp
0.0000000000000000e+00 1.5000000000000000e+01
0.0000000000000000e+00 1.5000000000000000e+01
-5.0000000000000000e-01 5.0000000000000000e-01
ITEM: ATOMS id x y z ix iy iz v_theta vx vy vz
2 14.5114 12.5396 0 10 -1 0 -0.55313 0.895122 -0.592275 0
1 3.19485 13.5528 0 -8 0 0 5.58352 0.39345 -0.727336 0
ITEM: TIMESTEP
147000
ITEM: NUMBER OF ATOMS
2
ITEM: BOX BOUNDS pp pp pp
0.0000000000000000e+00 1.5000000000000000e+01
0.0000000000000000e+00 1.5000000000000000e+01
-5.0000000000000000e-01 5.0000000000000000e-01
ITEM: ATOMS id x y z ix iy iz v_theta vx vy vz
2 15.2023 12.1449 0 10 -1 0 -0.518636 0.780022 -0.42579 0
1 3.75945 12.797 0 -8 0 0 5.25088 0.60166 -0.928375 0
ITEM: TIMESTEP
148000
ITEM: NUMBER OF ATOMS
2
ITEM: BOX BOUNDS pp pp pp
0.0000000000000000e+00 1.5000000000000000e+01
0.0000000000000000e+00 1.5000000000000000e+01
-5.0000000000000000e-01 5.0000000000000000e-01
ITEM: ATOMS id x y z ix iy iz v_theta vx vy vz
2 0.9048 11.5214 0 11 -1 0 -1.19589 0.216707 -0.984376 0
1 4.3937 11.9541 0 -8 0 0 5.25081 0.558581 -0.931539 0
ITEM: TIMESTEP
149000
ITEM: NUMBER OF ATOMS
2
ITEM: BOX BOUNDS pp pp pp
0.0000000000000000e+00 1.5000000000000000e+01
0.0000000000000000e+00 1.5000000000000000e+01
-5.0000000000000000e-01 5.0000000000000000e-01
ITEM: ATOMS id x y z ix iy iz v_theta vx vy vz
2 1.10339 10.4401 0 11 -1 0 -1.69572 -0.181277 -0.658222 0
1 5.15329 11.1041 0 -8 0 0 5.8631 1.19006 -0.561324 0
ITEM: TIMESTEP
150000
ITEM: NUMBER OF ATOMS
2
ITEM: BOX BOUNDS pp pp pp
0.0000000000000000e+00 1.5000000000000000e+01
0.0000000000000000e+00 1.5000000000000000e+01
-5.0000000000000000e-01 5.0000000000000000e-01
ITEM: ATOMS id x y z ix iy iz v_theta vx vy vz
2 1.22286 9.61032 0 11 -1 0 -1.49119 0.22548 -0.872497 0
1 6.10567 10.8634 0 -8 0 0 6.35646 1.05629 -0.186043 0
ITEM: TIMESTEP
151000
ITEM: NUMBER OF ATOMS
2
ITEM: BOX BOUNDS pp pp pp
0.0000000000000000e+00 1.5000000000000000e+01
0.0000000000000000e+00 1.5000000000000000e+01
-5.0000000000000000e-01 5.0000000000000000e-01
ITEM: ATOMS id x y z ix iy iz v_theta vx vy vz
2 1.69198 8.70511 0 11 -1 0 -1.20887 0.564334 -1.0339 0
1 7.07543 11.1172 0 -8 0 0 6.5703 0.997114 0.277121 0
ITEM: TIMESTEP
152000
ITEM: NUMBER OF ATOMS
2
ITEM: BOX BOUNDS pp pp pp
0.0000000000000000e+00 1.5000000000000000e+01
0.0000000000000000e+00 1.5000000000000000e+01
-5.0000000000000000e-01 5.0000000000000000e-01
ITEM: ATOMS id x y z ix iy iz v_theta vx vy vz
2 2.05363 7.68643 0 11 -1 0 -1.15759 0.113607 -0.589912 0
1 8.02932 11.1507 0 -8 0 0 6.1977 0.869815 -0.142563 0
ITEM: TIMESTEP
153000
ITEM: NUMBER OF ATOMS
2
ITEM: BOX BOUNDS pp pp pp
0.0000000000000000e+00 1.5000000000000000e+01
0.0000000000000000e+00 1.5000000000000000e+01
-5.0000000000000000e-01 5.0000000000000000e-01
ITEM: ATOMS id x y z ix iy iz v_theta vx vy vz
2 2.0591 6.62185 0 11 -1 0 -1.53239 0.0490811 -1.08931 0
1 9.03731 11.47 0 -8 0 0 6.65896 1.20963 0.0474842 0
ITEM: TIMESTEP
154000
ITEM: NUMBER OF ATOMS
2
ITEM: BOX BOUNDS pp pp pp
0.0000000000000000e+00 1.5000000000000000e+01
0.0000000000000000e+00 1.5000000000000000e+01
-5.0000000000000000e-01 5.0000000000000000e-01
ITEM: ATOMS id x y z ix iy iz v_theta vx vy vz
2 2.14061 5.60293 0 11 -1 0 -1.38154 0.480009 -0.760998 0
1 10.1682 11.907 0 -8 0 0 6.97235 0.85266 0.545778 0
ITEM: TIMESTEP
155000
ITEM: NUMBER OF ATOMS
2
ITEM: BOX BOUNDS pp pp pp
0.0000000000000000e+00 1.5000000000000000e+01
0.0000000000000000e+00 1.5000000000000000e+01
-5.0000000000000000e-01 5.0000000000000000e-01
ITEM: ATOMS id x y z ix iy iz v_theta vx vy vz
2 2.41852 4.6151 0 11 -1 0 -1.54528 0.405287 -0.541818 0
1 10.771 12.6968 0 -8 0 0 7.16991 0.55244 0.824547 0
ITEM: TIMESTEP
156000
ITEM: NUMBER OF ATOMS
2
ITEM: BOX BOUNDS pp pp pp
0.0000000000000000e+00 1.5000000000000000e+01
0.0000000000000000e+00 1.5000000000000000e+01
-5.0000000000000000e-01 5.0000000000000000e-01
ITEM: ATOMS id x y z ix iy iz v_theta vx vy vz
2 2.44769 3.66531 0 11 -1 0 -1.55906 0.309095 -1.02218 0
1 11.6847 13.2921 0 -8 0 0 6.89799 0.8645 0.463233 0
ITEM: TIMESTEP
157000
ITEM: NUMBER OF ATOMS
2
ITEM: BOX BOUNDS pp pp pp
0.0000000000000000e+00 1.5000000000000000e+01
0.0000000000000000e+00 1.5000000000000000e+01
-5.0000000000000000e-01 5.0000000000000000e-01
ITEM: ATOMS id x y z ix iy iz v_theta vx vy vz
2 2.31002 2.6199 0 11 -1 0 -1.81993 -0.614766 -1.03385 0
1 12.6431 13.6903 0 -8 0 0 6.11201 0.838687 -0.257966 0
ITEM: TIMESTEP
158000
ITEM: NUMBER OF ATOMS
2
ITEM: BOX BOUNDS pp pp pp
0.0000000000000000e+00 1.5000000000000000e+01
0.0000000000000000e+00 1.5000000000000000e+01
-5.0000000000000000e-01 5.0000000000000000e-01
ITEM: ATOMS id x y z ix iy iz v_theta vx vy vz
2 2.03231 1.75442 0 11 -1 0 -1.16437 0.0405709 -1.05202 0
1 13.623 13.5536 0 -8 0 0 5.95798 0.924874 -0.129528 0
ITEM: TIMESTEP
159000
ITEM: NUMBER OF ATOMS
2
ITEM: BOX BOUNDS pp pp pp
0.0000000000000000e+00 1.5000000000000000e+01
0.0000000000000000e+00 1.5000000000000000e+01
-5.0000000000000000e-01 5.0000000000000000e-01
ITEM: ATOMS id x y z ix iy iz v_theta vx vy vz
2 2.09714 0.809564 0 11 -1 0 -1.47526 0.156782 -1.31478 0
1 14.6979 13.4414 0 -8 0 0 5.62588 0.537911 -0.178166 0
ITEM: TIMESTEP
160000
ITEM: NUMBER OF ATOMS
2
ITEM: BOX BOUNDS pp pp pp
0.0000000000000000e+00 1.5000000000000000e+01
0.0000000000000000e+00 1.5000000000000000e+01
-5.0000000000000000e-01 5.0000000000000000e-01
ITEM: ATOMS id x y z ix iy iz v_theta vx vy vz
2 2.39319 14.8855 0 11 -2 0 -0.893904 0.544583 -1.08362 0
1 0.412428 13.1428 0 -7 0 0 5.75479 0.699566 -0.115977 0
ITEM: TIMESTEP
161000
ITEM: NUMBER OF ATOMS
2
ITEM: BOX BOUNDS pp pp pp
0.0000000000000000e+00 1.5000000000000000e+01
0.0000000000000000e+00 1.5000000000000000e+01
-5.0000000000000000e-01 5.0000000000000000e-01
ITEM: ATOMS id x y z ix iy iz v_theta vx vy vz
1 1.37063 12.717 0 -7 0 0 5.87489 1.20556 -0.247526 0
2 3.10452 14.0172 0 11 -2 0 -1.04155 0.745672 -0.932229 0
ITEM: TIMESTEP
162000
ITEM: NUMBER OF ATOMS
2
ITEM: BOX BOUNDS pp pp pp
0.0000000000000000e+00 1.5000000000000000e+01
0.0000000000000000e+00 1.5000000000000000e+01
-5.0000000000000000e-01 5.0000000000000000e-01
ITEM: ATOMS id x y z ix iy iz v_theta vx vy vz
1 2.09539 11.9269 0 -7 0 0 5.47866 0.822298 -0.659704 0
2 3.89021 13.1645 0 11 -2 0 -0.808912 1.16558 -0.905161 0
ITEM: TIMESTEP
163000
ITEM: NUMBER OF ATOMS
2
ITEM: BOX BOUNDS pp pp pp
0.0000000000000000e+00 1.5000000000000000e+01
0.0000000000000000e+00 1.5000000000000000e+01
-5.0000000000000000e-01 5.0000000000000000e-01
ITEM: ATOMS id x y z ix iy iz v_theta vx vy vz
1 2.77217 10.9117 0 -7 0 0 5.51093 0.589805 -1.04388 0
2 4.67375 12.5599 0 11 -2 0 -0.678166 1.10127 -0.583431 0
ITEM: TIMESTEP
164000
ITEM: NUMBER OF ATOMS
2
ITEM: BOX BOUNDS pp pp pp
0.0000000000000000e+00 1.5000000000000000e+01
0.0000000000000000e+00 1.5000000000000000e+01
-5.0000000000000000e-01 5.0000000000000000e-01
ITEM: ATOMS id x y z ix iy iz v_theta vx vy vz
1 3.283 10.2386 0 -7 0 0 5.562 0.566943 -0.932077 0
2 5.43879 11.9201 0 11 -2 0 -0.993701 0.904446 -0.996419 0
ITEM: TIMESTEP
165000
ITEM: NUMBER OF ATOMS
2
ITEM: BOX BOUNDS pp pp pp
0.0000000000000000e+00 1.5000000000000000e+01
0.0000000000000000e+00 1.5000000000000000e+01
-5.0000000000000000e-01 5.0000000000000000e-01
ITEM: ATOMS id x y z ix iy iz v_theta vx vy vz
1 4.06443 9.63372 0 -7 0 0 6.04683 1.07842 -0.0489773 0
2 5.81629 11.0361 0 11 -2 0 -1.32339 0.646983 -0.93974 0
ITEM: TIMESTEP
166000
ITEM: NUMBER OF ATOMS
2
ITEM: BOX BOUNDS pp pp pp
0.0000000000000000e+00 1.5000000000000000e+01
0.0000000000000000e+00 1.5000000000000000e+01
-5.0000000000000000e-01 5.0000000000000000e-01
ITEM: ATOMS id x y z ix iy iz v_theta vx vy vz
1 5.17351 9.37946 0 -7 0 0 6.4155 0.701215 -0.709956 0
2 5.91344 10.0879 0 11 -2 0 -2.16197 -0.135277 -0.39369 0
ITEM: TIMESTEP
167000
ITEM: NUMBER OF ATOMS
2
ITEM: BOX BOUNDS pp pp pp
0.0000000000000000e+00 1.5000000000000000e+01
0.0000000000000000e+00 1.5000000000000000e+01
-5.0000000000000000e-01 5.0000000000000000e-01
ITEM: ATOMS id x y z ix iy iz v_theta vx vy vz
1 5.95554 8.92666 0 -7 0 0 5.97435 0.91158 -0.166753 0
2 5.58013 9.90685 0 11 -2 0 -2.1706 -0.513046 -0.487309 0
ITEM: TIMESTEP
168000
ITEM: NUMBER OF ATOMS
2
ITEM: BOX BOUNDS pp pp pp
0.0000000000000000e+00 1.5000000000000000e+01
0.0000000000000000e+00 1.5000000000000000e+01
-5.0000000000000000e-01 5.0000000000000000e-01
ITEM: ATOMS id x y z ix iy iz v_theta vx vy vz
1 6.83694 8.67039 0 -7 0 0 6.21407 0.875335 -0.195224 0
2 5.40765 8.9319 0 11 -2 0 -2.08497 -0.59354 -0.946405 0
ITEM: TIMESTEP
169000
ITEM: NUMBER OF ATOMS
2
ITEM: BOX BOUNDS pp pp pp
0.0000000000000000e+00 1.5000000000000000e+01
0.0000000000000000e+00 1.5000000000000000e+01
-5.0000000000000000e-01 5.0000000000000000e-01
ITEM: ATOMS id x y z ix iy iz v_theta vx vy vz
2 5.27646 7.93462 0 11 -2 0 -1.67012 -0.125441 -0.863591 0
1 7.62377 8.91029 0 -7 0 0 6.87689 0.829699 0.415565 0
ITEM: TIMESTEP
170000
ITEM: NUMBER OF ATOMS
2
ITEM: BOX BOUNDS pp pp pp
0.0000000000000000e+00 1.5000000000000000e+01
0.0000000000000000e+00 1.5000000000000000e+01
-5.0000000000000000e-01 5.0000000000000000e-01
ITEM: ATOMS id x y z ix iy iz v_theta vx vy vz
2 5.23102 7.12341 0 11 -2 0 -1.58505 0.140246 -0.957831 0
1 8.48184 9.27442 0 -7 0 0 6.27688 0.835794 -0.470068 0
ITEM: TIMESTEP
171000
ITEM: NUMBER OF ATOMS
2
ITEM: BOX BOUNDS pp pp pp
0.0000000000000000e+00 1.5000000000000000e+01
0.0000000000000000e+00 1.5000000000000000e+01
-5.0000000000000000e-01 5.0000000000000000e-01
ITEM: ATOMS id x y z ix iy iz v_theta vx vy vz
2 5.32315 6.08328 0 11 -2 0 -1.09635 0.315808 -0.921004 0
1 9.37395 9.48796 0 -7 0 0 6.64954 0.887739 0.660097 0
ITEM: TIMESTEP
172000
ITEM: NUMBER OF ATOMS
2
ITEM: BOX BOUNDS pp pp pp
0.0000000000000000e+00 1.5000000000000000e+01
0.0000000000000000e+00 1.5000000000000000e+01
-5.0000000000000000e-01 5.0000000000000000e-01
ITEM: ATOMS id x y z ix iy iz v_theta vx vy vz
2 5.38044 5.10082 0 11 -2 0 -1.323 0.305183 -0.999762 0
1 10.2824 9.77329 0 -7 0 0 6.50332 0.854559 0.80635 0
ITEM: TIMESTEP
173000
ITEM: NUMBER OF ATOMS
2
ITEM: BOX BOUNDS pp pp pp
0.0000000000000000e+00 1.5000000000000000e+01
0.0000000000000000e+00 1.5000000000000000e+01
-5.0000000000000000e-01 5.0000000000000000e-01
ITEM: ATOMS id x y z ix iy iz v_theta vx vy vz
2 5.73344 4.1582 0 11 -2 0 -1.29513 0.554387 -0.581966 0
1 11.3378 10.1794 0 -7 0 0 6.59017 0.93103 0.625789 0
ITEM: TIMESTEP
174000
ITEM: NUMBER OF ATOMS
2
ITEM: BOX BOUNDS pp pp pp
0.0000000000000000e+00 1.5000000000000000e+01
0.0000000000000000e+00 1.5000000000000000e+01
-5.0000000000000000e-01 5.0000000000000000e-01
ITEM: ATOMS id x y z ix iy iz v_theta vx vy vz
2 6.40271 3.36401 0 11 -2 0 -1.21487 0.105476 -0.781339 0
1 11.9276 10.956 0 -7 0 0 6.96145 0.711407 0.86437 0
ITEM: TIMESTEP
175000
ITEM: NUMBER OF ATOMS
2
ITEM: BOX BOUNDS pp pp pp
0.0000000000000000e+00 1.5000000000000000e+01
0.0000000000000000e+00 1.5000000000000000e+01
-5.0000000000000000e-01 5.0000000000000000e-01
ITEM: ATOMS id x y z ix iy iz v_theta vx vy vz
2 6.79305 2.67659 0 11 -2 0 -1.32145 -0.000339614 -1.06124 0
1 12.5222 11.8571 0 -7 0 0 7.29612 0.409141 0.856015 0
ITEM: TIMESTEP
176000
ITEM: NUMBER OF ATOMS
2
ITEM: BOX BOUNDS pp pp pp
0.0000000000000000e+00 1.5000000000000000e+01
0.0000000000000000e+00 1.5000000000000000e+01
-5.0000000000000000e-01 5.0000000000000000e-01
ITEM: ATOMS id x y z ix iy iz v_theta vx vy vz
2 6.92632 1.78357 0 11 -2 0 -1.28335 0.0876598 -0.940949 0
1 13.1184 12.6717 0 -7 0 0 7.10439 0.399405 0.865724 0
ITEM: TIMESTEP
177000
ITEM: NUMBER OF ATOMS
2
ITEM: BOX BOUNDS pp pp pp
0.0000000000000000e+00 1.5000000000000000e+01
0.0000000000000000e+00 1.5000000000000000e+01
-5.0000000000000000e-01 5.0000000000000000e-01
ITEM: ATOMS id x y z ix iy iz v_theta vx vy vz
2 7.17345 0.819938 0 11 -2 0 -1.42625 0.176372 -0.524026 0
1 13.6243 13.4438 0 -7 0 0 7.58287 0.553263 1.2068 0
ITEM: TIMESTEP
178000
ITEM: NUMBER OF ATOMS
2
ITEM: BOX BOUNDS pp pp pp
0.0000000000000000e+00 1.5000000000000000e+01
0.0000000000000000e+00 1.5000000000000000e+01
-5.0000000000000000e-01 5.0000000000000000e-01
ITEM: ATOMS id x y z ix iy iz v_theta vx vy vz
2 7.2445 -0.00702518 0 11 -2 0 -1.773 -0.194749 -0.919766 0
1 14.1194 14.3672 0 -7 0 0 7.2542 0.505699 1.14378 0
ITEM: TIMESTEP
179000
ITEM: NUMBER OF ATOMS
2
ITEM: BOX BOUNDS pp pp pp
0.0000000000000000e+00 1.5000000000000000e+01
0.0000000000000000e+00 1.5000000000000000e+01
-5.0000000000000000e-01 5.0000000000000000e-01
ITEM: ATOMS id x y z ix iy iz v_theta vx vy vz
2 7.21453 13.9127 0 11 -3 0 -1.54044 -0.257342 -1.29138 0
1 14.4734 15.1789 0 -7 0 0 7.46814 -0.026465 0.657586 0
ITEM: TIMESTEP
180000
ITEM: NUMBER OF ATOMS
2
ITEM: BOX BOUNDS pp pp pp
0.0000000000000000e+00 1.5000000000000000e+01
0.0000000000000000e+00 1.5000000000000000e+01
-5.0000000000000000e-01 5.0000000000000000e-01
ITEM: ATOMS id x y z ix iy iz v_theta vx vy vz
1 14.7385 0.931013 0 -7 1 0 7.29778 0.356851 0.957493 0
2 7.1004 13.0428 0 11 -3 0 -1.9991 -0.390123 -1.22668 0
ITEM: TIMESTEP
181000