ITEM: TIMESTEP
100000
ITEM: NUMBER OF ATOMS
2
ITEM: BOX BOUNDS pp pp pp
0.0000000000000000e+00 1.5000000000000000e+01
0.0000000000000000e+00 1.5000000000000000e+01
-5.0000000000000000e-01 5.0000000000000000e-01
ITEM: ATOMS id x y z ix iy iz v_theta vx vy vz
2 7.13689 9.22688 0 10 -1 0 2.31658 -0.106095 -0.289539 0
1 13.4619 10.2111 0 -11 1 0 5.98947 0.106095 0.289539 0
ITEM: TIMESTEP
101000
ITEM: NUMBER OF ATOMS
2
ITEM: BOX BOUNDS pp pp pp
0.0000000000000000e+00 1.5000000000000000e+01
0.0000000000000000e+00 1.5000000000000000e+01
-5.0000000000000000e-01 5.0000000000000000e-01
ITEM: ATOMS id x y z ix iy iz v_theta vx vy vz
2 7.17248 9.05384 0 10 -1 0 2.12009 -0.228545 0.0560722 0
1 13.4429 10.2324 0 -11 1 0 6.20322 0.0661784 -0.291375 0
ITEM: TIMESTEP
102000
ITEM: NUMBER OF ATOMS
2
ITEM: BOX BOUNDS pp pp pp
0.0000000000000000e+00 1.5000000000000000e+01
0.0000000000000000e+00 1.5000000000000000e+01
-5.0000000000000000e-01 5.0000000000000000e-01
ITEM: ATOMS id x y z ix iy iz v_theta vx vy vz
2 7.13661 9.01234 0 10 -1 0 2.25056 0.326854 0.202409 0
1 13.3855 10.2855 0 -11 1 0 6.11843 -0.109434 -0.181007 0
ITEM: TIMESTEP
103000
ITEM: NUMBER OF ATOMS
2
ITEM: BOX BOUNDS pp pp pp
0.0000000000000000e+00 1.5000000000000000e+01
0.0000000000000000e+00 1.5000000000000000e+01
-5.0000000000000000e-01 5.0000000000000000e-01
ITEM: ATOMS id x y z ix iy iz v_theta vx vy vz
2 7.09926 8.91626 0 10 -1 0 2.12987 0.206122 -0.387802 0
1 13.4849 10.1593 0 -11 1 0 6.17448 0.160949 0.138936 0
ITEM: TIMESTEP
104000
ITEM: NUMBER OF ATOMS
2
ITEM: BOX BOUNDS pp pp pp
0.0000000000000000e+00 1.5000000000000000e+01
0.0000000000000000e+00 1.5000000000000000e+01
-5.0000000000000000e-01 5.0000000000000000e-01
ITEM: ATOMS id x y z ix iy iz v_theta vx vy vz
2 7.18183 8.9064 0 10 -1 0 2.46914 0.135541 -0.282411 0
1 13.5477 10.1332 0 -11 1 0 6.33917 0.244697 0.237688 0
ITEM: TIMESTEP
105000
ITEM: NUMBER OF ATOMS
2
ITEM: BOX BOUNDS pp pp pp
0.0000000000000000e+00 1.5000000000000000e+01
0.0000000000000000e+00 1.5000000000000000e+01
-5.0000000000000000e-01 5.0000000000000000e-01
ITEM: ATOMS id x y z ix iy iz v_theta vx vy vz
2 7.14215 8.95243 0 10 -1 0 2.73875 0.158166 -0.090261 0
1 13.616 10.222 0 -11 1 0 6.72327 0.215738 0.549133 0
ITEM: TIMESTEP
106000
ITEM: NUMBER OF ATOMS
2
ITEM: BOX BOUNDS pp pp pp
0.0000000000000000e+00 1.5000000000000000e+01
0.0000000000000000e+00 1.5000000000000000e+01
-5.0000000000000000e-01 5.0000000000000000e-01
ITEM: ATOMS id x y z ix iy iz v_theta vx vy vz
2 7.1286 8.88032 0 10 -1 0 2.93703 -0.0724792 0.122012 0
1 13.6044 10.2102 0 -11 1 0 6.68342 0.0651232 0.292344 0
ITEM: TIMESTEP
107000
ITEM: NUMBER OF ATOMS
2
ITEM: BOX BOUNDS pp pp pp
0.0000000000000000e+00 1.5000000000000000e+01
0.0000000000000000e+00 1.5000000000000000e+01
-5.0000000000000000e-01 5.0000000000000000e-01
ITEM: ATOMS id x y z ix iy iz v_theta vx vy vz
2 7.05867 8.80192 0 10 -1 0 3.00147 0.070257 -0.0562261 0
1 13.5956 10.1838 0 -11 1 0 6.2855 -0.319747 0.13383 0
ITEM: TIMESTEP
108000
ITEM: NUMBER OF ATOMS
2
ITEM: BOX BOUNDS pp pp pp
0.0000000000000000e+00 1.5000000000000000e+01
0.0000000000000000e+00 1.5000000000000000e+01
-5.0000000000000000e-01 5.0000000000000000e-01
ITEM: ATOMS id x y z ix iy iz v_theta vx vy vz
2 7.13847 8.69294 0 10 -1 0 2.76646 0.0988487 0.0858955 0
1 13.5664 10.1139 0 -11 1 0 6.15369 -0.168362 -0.0668891 0
ITEM: TIMESTEP
109000
ITEM: NUMBER OF ATOMS
2
ITEM: BOX BOUNDS pp pp pp
0.0000000000000000e+00 1.5000000000000000e+01
0.0000000000000000e+00 1.5000000000000000e+01
-5.0000000000000000e-01 5.0000000000000000e-01
ITEM: ATOMS id x y z ix iy iz v_theta vx vy vz
2 7.11199 8.69753 0 10 -1 0 2.8634 -0.14052 -0.281497 0
1 13.6215 10.1951 0 -11 1 0 6.80946 -0.0787562 -0.0849485 0
ITEM: TIMESTEP
110000
ITEM: NUMBER OF ATOMS
2
ITEM: BOX BOUNDS pp pp pp
0.0000000000000000e+00 1.5000000000000000e+01
0.0000000000000000e+00 1.5000000000000000e+01
-5.0000000000000000e-01 5.0000000000000000e-01
ITEM: ATOMS id x y z ix iy iz v_theta vx vy vz
2 7.1808 8.70255 0 10 -1 0 2.57419 -0.145878 0.0476167 0
1 13.5657 10.2851 0 -11 1 0 6.82726 0.295288 -0.0505149 0
ITEM: TIMESTEP
111000
ITEM: NUMBER OF ATOMS
2
ITEM: BOX BOUNDS pp pp pp
0.0000000000000000e+00 1.5000000000000000e+01
0.0000000000000000e+00 1.5000000000000000e+01
-5.0000000000000000e-01 5.0000000000000000e-01
ITEM: ATOMS id x y z ix iy iz v_theta vx vy vz
2 7.20139 8.652 0 10 -1 0 2.87346 0.0801237 0.14226 0
1 13.8562 10.3466 0 -11 1 0 6.57704 0.199875 -0.0284007 0
ITEM: TIMESTEP
112000
ITEM: NUMBER OF ATOMS
2
ITEM: BOX BOUNDS pp pp pp
0.0000000000000000e+00 1.5000000000000000e+01
0.0000000000000000e+00 1.5000000000000000e+01
-5.0000000000000000e-01 5.0000000000000000e-01
ITEM: ATOMS id x y z ix iy iz v_theta vx vy vz
2 7.33595 8.71282 0 10 -1 0 3.50957 -0.194653 -0.101335 0
1 13.891 10.2059 0 -11 1 0 6.09733 -0.0683654 -0.0790595 0
ITEM: TIMESTEP
113000
ITEM: NUMBER OF ATOMS
2
ITEM: BOX BOUNDS pp pp pp
0.0000000000000000e+00 1.5000000000000000e+01
0.0000000000000000e+00 1.5000000000000000e+01
-5.0000000000000000e-01 5.0000000000000000e-01
ITEM: ATOMS id x y z ix iy iz v_theta vx vy vz
2 7.26011 8.64377 0 10 -1 0 2.90813 -0.645944 -0.142009 0
1 13.9964 10.1896 0 -11 1 0 6.28345 0.067069 0.0991264 0
ITEM: TIMESTEP
114000
ITEM: NUMBER OF ATOMS
2
ITEM: BOX BOUNDS pp pp pp
0.0000000000000000e+00 1.5000000000000000e+01
0.0000000000000000e+00 1.5000000000000000e+01
-5.0000000000000000e-01 5.0000000000000000e-01
ITEM: ATOMS id x y z ix iy iz v_theta vx vy vz
2 7.2177 8.77272 0 10 -1 0 3.02533 0.133366 0.401972 0
1 14.0017 10.234 0 -11 1 0 6.31004 0.0325552 0.26406 0
ITEM: TIMESTEP
115000
ITEM: NUMBER OF ATOMS
2
ITEM: BOX BOUNDS pp pp pp
0.0000000000000000e+00 1.5000000000000000e+01
0.0000000000000000e+00 1.5000000000000000e+01
-5.0000000000000000e-01 5.0000000000000000e-01
ITEM: ATOMS id x y z ix iy iz v_theta vx vy vz
2 7.19072 8.61736 0 10 -1 0 2.77751 0.0391918 0.109433 0
1 14.1371 10.1847 0 -11 1 0 6.12956 0.0443138 -0.523497 0
ITEM: TIMESTEP
116000
ITEM: NUMBER OF ATOMS
2
ITEM: BOX BOUNDS pp pp pp
0.0000000000000000e+00 1.5000000000000000e+01
0.0000000000000000e+00 1.5000000000000000e+01
-5.0000000000000000e-01 5.0000000000000000e-01
ITEM: ATOMS id x y z ix iy iz v_theta vx vy vz
2 7.20521 8.56238 0 10 -1 0 1.9329 -0.49857 -0.13904 0
1 14.1352 10.1049 0 -11 1 0 6.06349 -0.0580393 0.219181 0
ITEM: TIMESTEP
117000
ITEM: NUMBER OF ATOMS
2
ITEM: BOX BOUNDS pp pp pp
0.0000000000000000e+00 1.5000000000000000e+01
0.0000000000000000e+00 1.5000000000000000e+01
-5.0000000000000000e-01 5.0000000000000000e-01
ITEM: ATOMS id x y z ix iy iz v_theta vx vy vz
2 6.984 8.47636 0 10 -1 0 1.5418 -0.122088 0.453118 0
1 14.0691 10.2063 0 -11 1 0 5.44992 0.00238817 0.0883298 0
ITEM: TIMESTEP
118000
ITEM: NUMBER OF ATOMS
2
ITEM: BOX BOUNDS pp pp pp
0.0000000000000000e+00 1.5000000000000000e+01
0.0000000000000000e+00 1.5000000000000000e+01
-5.0000000000000000e-01 5.0000000000000000e-01
ITEM: ATOMS id x y z ix iy iz v_theta vx vy vz
2 6.91851 8.40531 0 10 -1 0 1.66262 0.0728828 -0.15833 0
1 13.9929 10.2775 0 -11 1 0 4.98293 -0.180353 0.12742 0
ITEM: TIMESTEP
119000
ITEM: NUMBER OF ATOMS
2
ITEM: BOX BOUNDS pp pp pp
0.0000000000000000e+00 1.5000000000000000e+01
0.0000000000000000e+00 1.5000000000000000e+01
-5.0000000000000000e-01 5.0000000000000000e-01
ITEM: ATOMS id x y z ix iy iz v_theta vx vy vz
2 6.95177 8.39432 0 10 -1 0 0.540835 0.212063 -0.338129 0
1 13.8751 10.3038 0 -11 1 0 5.22313 -0.0611164 0.229 0
ITEM: TIMESTEP
120000
ITEM: NUMBER OF ATOMS
2
ITEM: BOX BOUNDS pp pp pp
0.0000000000000000e+00 1.5000000000000000e+01
0.0000000000000000e+00 1.5000000000000000e+01
-5.0000000000000000e-01 5.0000000000000000e-01
ITEM: ATOMS id x y z ix iy iz v_theta vx vy vz
2 7.02524 8.46346 0 10 -1 0 0.273897 0.170897 -0.230192 0
1 13.602 10.2893 0 -11 1 0 5.59156 0.0919807 -0.00625883 0
ITEM: TIMESTEP
121000
ITEM: NUMBER OF ATOMS
2
ITEM: BOX BOUNDS pp pp pp
0.0000000000000000e+00 1.5000000000000000e+01
0.0000000000000000e+00 1.5000000000000000e+01
-5.0000000000000000e-01 5.0000000000000000e-01
ITEM: ATOMS id x y z ix iy iz v_theta vx vy vz
2 6.92154 8.46668 0 10 -1 0 0.184619 0.323882 0.0950743 0
1 13.7026 10.3222 0 -11 1 0 6.13011 0.293725 0.137748 0
ITEM: TIMESTEP
122000
ITEM: NUMBER OF ATOMS
2
ITEM: BOX BOUNDS pp pp pp
0.0000000000000000e+00 1.5000000000000000e+01
0.0000000000000000e+00 1.5000000000000000e+01
-5.0000000000000000e-01 5.0000000000000000e-01
ITEM: ATOMS id x y z ix iy iz v_theta vx vy vz
2 6.9987 8.39545 0 10 -1 0 -0.382744 0.00842032 -0.241242 0
1 13.7927 10.4777 0 -11 1 0 5.59442 -0.0108481 0.338922 0
ITEM: TIMESTEP
123000
ITEM: NUMBER OF ATOMS
2
ITEM: BOX BOUNDS pp pp pp
0.0000000000000000e+00 1.5000000000000000e+01
0.0000000000000000e+00 1.5000000000000000e+01
-5.0000000000000000e-01 5.0000000000000000e-01
ITEM: ATOMS id x y z ix iy iz v_theta vx vy vz
2 6.80278 8.45657 0 10 -1 0 -1.18295 -0.130222 -0.219179 0
1 13.8394 10.3638 0 -11 1 0 5.67082 0.250443 -0.00824947 0
ITEM: TIMESTEP
124000
ITEM: NUMBER OF ATOMS
2
ITEM: BOX BOUNDS pp pp pp
0.0000000000000000e+00 1.5000000000000000e+01
0.0000000000000000e+00 1.5000000000000000e+01
-5.0000000000000000e-01 5.0000000000000000e-01
ITEM: ATOMS id x y z ix iy iz v_theta vx vy vz
2 6.84032 8.47856 0 10 -1 0 -0.779902 -0.0614053 -0.260871 0
1 13.831 10.382 0 -11 1 0 5.73215 -0.331939 -0.0284694 0
ITEM: TIMESTEP
125000
ITEM: NUMBER OF ATOMS
2
ITEM: BOX BOUNDS pp pp pp
0.0000000000000000e+00 1.5000000000000000e+01
0.0000000000000000e+00 1.5000000000000000e+01
-5.0000000000000000e-01 5.0000000000000000e-01
ITEM: ATOMS id x y z ix iy iz v_theta vx vy vz
2 6.74826 8.27526 0 10 -1 0 -0.94672 -0.00879631 -0.25045 0
1 13.8738 10.329 0 -11 1 0 5.4036 0.122605 -0.128438 0
ITEM: TIMESTEP
126000
ITEM: NUMBER OF ATOMS
2
ITEM: BOX BOUNDS pp pp pp
0.0000000000000000e+00 1.5000000000000000e+01
0.0000000000000000e+00 1.5000000000000000e+01
-5.0000000000000000e-01 5.0000000000000000e-01
ITEM: ATOMS id x y z ix iy iz v_theta vx vy vz
2 6.74911 8.3876 0 10 -1 0 -0.676444 -0.325067 -0.0913823 0
1 13.895 10.0623 0 -11 1 0 5.67771 0.295726 -0.487329 0
ITEM: TIMESTEP
127000
ITEM: NUMBER OF ATOMS
2
ITEM: BOX BOUNDS pp pp pp
0.0000000000000000e+00 1.5000000000000000e+01
0.0000000000000000e+00 1.5000000000000000e+01
-5.0000000000000000e-01 5.0000000000000000e-01
ITEM: ATOMS id x y z ix iy iz v_theta vx vy vz
2 6.54002 8.24358 0 10 -1 0 -0.74127 -0.380041 -0.510213 0
1 13.8764 9.95213 0 -11 1 0 5.2619 0.226887 0.139062 0
ITEM: TIMESTEP
128000
ITEM: NUMBER OF ATOMS
2
ITEM: BOX BOUNDS pp pp pp
0.0000000000000000e+00 1.5000000000000000e+01
0.0000000000000000e+00 1.5000000000000000e+01
-5.0000000000000000e-01 5.0000000000000000e-01
ITEM: ATOMS id x y z ix iy iz v_theta vx vy vz
2 6.45184 8.16393 0 10 -1 0 -0.679484 0.102646 0.195546 0
1 13.9511 9.9626 0 -11 1 0 5.19754 0.0415772 0.183355 0
ITEM: TIMESTEP
129000
ITEM: NUMBER OF ATOMS
2
ITEM: BOX BOUNDS pp pp pp
0.0000000000000000e+00 1.5000000000000000e+01
0.0000000000000000e+00 1.5000000000000000e+01
-5.0000000000000000e-01 5.0000000000000000e-01
ITEM: ATOMS id x y z ix iy iz v_theta vx vy vz
2 6.47978 8.15988 0 10 -1 0 -0.560225 -0.161919 0.167024 0
1 14.0021 9.96489 0 -11 1 0 5.36751 -0.175442 -0.108089 0
ITEM: TIMESTEP
130000
ITEM: NUMBER OF ATOMS
2
ITEM: BOX BOUNDS pp pp pp
0.0000000000000000e+00 1.5000000000000000e+01
0.0000000000000000e+00 1.5000000000000000e+01
-5.0000000000000000e-01 5.0000000000000000e-01
ITEM: ATOMS id x y z ix iy iz v_theta vx vy vz
2 6.38764 8.13299 0 10 -1 0 -1.02371 0.00155859 0.041536 0
1 13.9754 10.0232 0 -11 1 0 4.89057 0.0785426 -0.12516 0
ITEM: TIMESTEP
131000
ITEM: NUMBER OF ATOMS
2
ITEM: BOX BOUNDS pp pp pp
0.0000000000000000e+00 1.5000000000000000e+01
0.0000000000000000e+00 1.5000000000000000e+01
-5.0000000000000000e-01 5.0000000000000000e-01
ITEM: ATOMS id x y z ix iy iz v_theta vx vy vz
2 6.30974 8.07874 0 10 -1 0 -0.622457 0.108646 -0.297112 0
1 14.1143 9.95753 0 -11 1 0 4.77916 -0.166271 0.103054 0
ITEM: TIMESTEP
132000
ITEM: NUMBER OF ATOMS
2
ITEM: BOX BOUNDS pp pp pp
0.0000000000000000e+00 1.5000000000000000e+01
0.0000000000000000e+00 1.5000000000000000e+01
-5.0000000000000000e-01 5.0000000000000000e-01
ITEM: ATOMS id x y z ix iy iz v_theta vx vy vz
2 6.27032 8.12336 0 10 -1 0 -0.327494 -0.0473496 0.310147 0
1 14.0813 9.9604 0 -11 1 0 5.42426 -0.14076 -0.258644 0
ITEM: TIMESTEP
133000
ITEM: NUMBER OF ATOMS
2
ITEM: BOX BOUNDS pp pp pp
0.0000000000000000e+00 1.5000000000000000e+01
0.0000000000000000e+00 1.5000000000000000e+01
-5.0000000000000000e-01 5.0000000000000000e-01
ITEM: ATOMS id x y z ix iy iz v_theta vx vy vz
2 6.27633 8.10183 0 10 -1 0 -0.203829 -6.11742e-05 -0.192544 0
1 14.1236 9.89426 0 -11 1 0 5.79489 0.135089 -0.0598273 0
ITEM: TIMESTEP
134000
ITEM: NUMBER OF ATOMS
2
ITEM: BOX BOUNDS pp pp pp
0.0000000000000000e+00 1.5000000000000000e+01
0.0000000000000000e+00 1.5000000000000000e+01
-5.0000000000000000e-01 5.0000000000000000e-01
ITEM: ATOMS id x y z ix iy iz v_theta vx vy vz
2 6.07969 8.13103 0 10 -1 0 0.412713 0.249703 0.1643 0
1 14.167 9.89462 0 -11 1 0 6.22882 0.112357 -0.146639 0
ITEM: TIMESTEP
135000
ITEM: NUMBER OF ATOMS
2
ITEM: BOX BOUNDS pp pp pp
0.0000000000000000e+00 1.5000000000000000e+01
0.0000000000000000e+00 1.5000000000000000e+01
-5.0000000000000000e-01 5.0000000000000000e-01
ITEM: ATOMS id x y z ix iy iz v_theta vx vy vz
2 6.01976 8.3205 0 10 -1 0 0.144696 -0.605368 -0.159711 0
1 14.133 9.83205 0 -11 1 0 6.31898 -0.570196 0.0988337 0
ITEM: TIMESTEP
136000
ITEM: NUMBER OF ATOMS
2
ITEM: BOX BOUNDS pp pp pp
0.0000000000000000e+00 1.5000000000000000e+01
0.0000000000000000e+00 1.5000000000000000e+01
-5.0000000000000000e-01 5.0000000000000000e-01
ITEM: ATOMS id x y z ix iy iz v_theta vx vy vz
2 6.04576 8.30476 0 10 -1 0 0.46664 0.363154 -0.0754858 0
1 13.9454 9.77487 0 -11 1 0 6.47831 0.0164147 0.129633 0
ITEM: TIMESTEP
137000
ITEM: NUMBER OF ATOMS
2
ITEM: BOX BOUNDS pp pp pp
0.0000000000000000e+00 1.5000000000000000e+01
0.0000000000000000e+00 1.5000000000000000e+01
-5.0000000000000000e-01 5.0000000000000000e-01
ITEM: ATOMS id x y z ix iy iz v_theta vx vy vz
2 6.25301 8.34926 0 10 -1 0 1.05841 -0.01169 0.0586149 0
1 13.8083 9.79776 0 -11 1 0 6.61159 -0.213787 0.157815 0
ITEM: TIMESTEP
138000
ITEM: NUMBER OF ATOMS
2
ITEM: BOX BOUNDS pp pp pp
0.0000000000000000e+00 1.5000000000000000e+01
0.0000000000000000e+00 1.5000000000000000e+01
-5.0000000000000000e-01 5.0000000000000000e-01
ITEM: ATOMS id x y z ix iy iz v_theta vx vy vz
2 6.42301 8.3446 0 10 -1 0 0.867459 0.510623 -0.168741 0
1 13.7428 9.81099 0 -11 1 0 6.09484 0.383676 -0.0228961 0
ITEM: TIMESTEP
139000
ITEM: NUMBER OF ATOMS
2
ITEM: BOX BOUNDS pp pp pp
0.0000000000000000e+00 1.5000000000000000e+01
0.0000000000000000e+00 1.5000000000000000e+01
-5.0000000000000000e-01 5.0000000000000000e-01
ITEM: ATOMS id x y z ix iy iz v_theta vx vy vz
2 6.40928 8.19454 0 10 -1 0 0.666605 -0.164405 -0.393731 0
1 13.7302 9.92062 0 -11 1 0 5.00115 0.036045 -0.220118 0
ITEM: TIMESTEP
140000
ITEM: NUMBER OF ATOMS
2
ITEM: BOX BOUNDS pp pp pp
0.0000000000000000e+00 1.5000000000000000e+01
0.0000000000000000e+00 1.5000000000000000e+01
-5.0000000000000000e-01 5.0000000000000000e-01
ITEM: ATOMS id x y z ix iy iz v_theta vx vy vz
2 6.31881 8.14756 0 10 -1 0 0.725903 -0.339713 -0.0241926 0
1 13.6763 9.86909 0 -11 1 0 4.66754 -0.219478 -0.0409362 0
ITEM: TIMESTEP
141000
ITEM: NUMBER OF ATOMS
2
ITEM: BOX BOUNDS pp pp pp
0.0000000000000000e+00 1.5000000000000000e+01
0.0000000000000000e+00 1.5000000000000000e+01
-5.0000000000000000e-01 5.0000000000000000e-01
ITEM: ATOMS id x y z ix iy iz v_theta vx vy vz
2 6.39281 8.20632 0 10 -1 0 0.717307 0.0345251 0.229331 0
1 13.686 9.83234 0 -11 1 0 4.1045 0.109937 0.232776 0
ITEM: TIMESTEP
142000
ITEM: NUMBER OF ATOMS
2
ITEM: BOX BOUNDS pp pp pp
0.0000000000000000e+00 1.5000000000000000e+01
0.0000000000000000e+00 1.5000000000000000e+01
-5.0000000000000000e-01 5.0000000000000000e-01
ITEM: ATOMS id x y z ix iy iz v_theta vx vy vz
2 6.4055 8.1858 0 10 -1 0 0.663735 -0.265704 -0.106303 0
1 13.6771 9.89362 0 -11 1 0 3.84477 0.51602 -0.209901 0
ITEM: TIMESTEP
143000
ITEM: NUMBER OF ATOMS
2
ITEM: BOX BOUNDS pp pp pp
0.0000000000000000e+00 1.5000000000000000e+01
0.0000000000000000e+00 1.5000000000000000e+01
-5.0000000000000000e-01 5.0000000000000000e-01
ITEM: ATOMS id x y z ix iy iz v_theta vx vy vz
2 6.44556 8.28052 0 10 -1 0 0.493483 -0.282587 0.279718 0
1 13.6357 9.70032 0 -11 1 0 3.97276 -0.0381425 -0.0758067 0
ITEM: TIMESTEP
144000
ITEM: NUMBER OF ATOMS
2
ITEM: BOX BOUNDS pp pp pp
0.0000000000000000e+00 1.5000000000000000e+01
0.0000000000000000e+00 1.5000000000000000e+01
-5.0000000000000000e-01 5.0000000000000000e-01
ITEM: ATOMS id x y z ix iy iz v_theta vx vy vz
2 6.34152 8.25195 0 10 -1 0 0.227401 -0.0566827 -0.155352 0
1 13.5902 9.5276 0 -11 1 0 4.47862 0.153491 -0.142239 0
ITEM: TIMESTEP
145000
ITEM: NUMBER OF ATOMS
2
ITEM: BOX BOUNDS pp pp pp
0.0000000000000000e+00 1.5000000000000000e+01
0.0000000000000000e+00 1.5000000000000000e+01
-5.0000000000000000e-01 5.0000000000000000e-01
ITEM: ATOMS id x y z ix iy iz v_theta vx vy vz
2 6.30301 8.15701 0 10 -1 0 0.668171 -0.0503105 0.111794 0
1 13.7193 9.58509 0 -11 1 0 4.92387 -0.365122 0.683554 0
ITEM: TIMESTEP
146000
ITEM: NUMBER OF ATOMS
2
ITEM: BOX BOUNDS pp pp pp
0.0000000000000000e+00 1.5000000000000000e+01
0.0000000000000000e+00 1.5000000000000000e+01
-5.0000000000000000e-01 5.0000000000000000e-01
ITEM: ATOMS id x y z ix iy iz v_theta vx vy vz
2 6.43055 8.07734 0 10 -1 0 0.477433 0.0399961 -0.0773376 0
1 13.69 9.61699 0 -11 1 0 4.55296 -0.350113 -0.0661961 0
ITEM: TIMESTEP
147000
ITEM: NUMBER OF ATOMS
2
ITEM: BOX BOUNDS pp pp pp
0.0000000000000000e+00 1.5000000000000000e+01
0.0000000000000000e+00 1.5000000000000000e+01
-5.0000000000000000e-01 5.0000000000000000e-01
ITEM: ATOMS id x y z ix iy iz v_theta vx vy vz
2 6.30994 8.24127 0 10 -1 0 0.511927 -0.00202632 0.184265 0
1 13.7394 9.70662 0 -11 1 0 4.22032 0.0995102 -0.0633979 0
ITEM: TIMESTEP
148000
ITEM: NUMBER OF ATOMS
2
ITEM: BOX BOUNDS pp pp pp
0.0000000000000000e+00 1.5000000000000000e+01
0.0000000000000000e+00 1.5000000000000000e+01
-5.0000000000000000e-01 5.0000000000000000e-01
ITEM: ATOMS id x y z ix iy iz v_theta vx vy vz
2 6.33229 8.30815 0 10 -1 0 -0.165327 -0.139099 -0.0531182 0
1 13.7896 9.66507 0 -11 1 0 4.22025 0.0145795 -0.0985854 0
ITEM: TIMESTEP
149000
ITEM: NUMBER OF ATOMS
2
ITEM: BOX BOUNDS pp pp pp
0.0000000000000000e+00 1.5000000000000000e+01
0.0000000000000000e+00 1.5000000000000000e+01
-5.0000000000000000e-01 5.0000000000000000e-01
ITEM: ATOMS id x y z ix iy iz v_theta vx vy vz
2 6.43088 8.20999 0 10 -1 0 -0.665154 -0.157651 0.340004 0
1 13.8997 9.54744 0 -11 1 0 4.83254 0.310042 -0.0954285 0
ITEM: TIMESTEP
150000
ITEM: NUMBER OF ATOMS
2
ITEM: BOX BOUNDS pp pp pp
0.0000000000000000e+00 1.5000000000000000e+01
0.0000000000000000e+00 1.5000000000000000e+01
-5.0000000000000000e-01 5.0000000000000000e-01
ITEM: ATOMS id x y z ix iy iz v_theta vx vy vz
2 6.38131 8.35571 0 10 -1 0 -0.460628 0.0604718 0.109556 0
1 13.9009 9.55607 0 -11 1 0 5.3259 0.0597521 -0.213817 0
ITEM: TIMESTEP
151000
ITEM: NUMBER OF ATOMS
2
ITEM: BOX BOUNDS pp pp pp
0.0000000000000000e+00 1.5000000000000000e+01
0.0000000000000000e+00 1.5000000000000000e+01
-5.0000000000000000e-01 5.0000000000000000e-01
ITEM: ATOMS id x y z ix iy iz v_theta vx vy vz
2 6.53654 8.39393 0 10 -1 0 -0.178305 0.197345 -0.105385 0
1 13.9156 9.55841 0 -11 1 0 5.53974 0.0626925 -0.0701292 0
ITEM: TIMESTEP
152000
ITEM: NUMBER OF ATOMS
2
ITEM: BOX BOUNDS pp pp pp
0.0000000000000000e+00 1.5000000000000000e+01
0.0000000000000000e+00 1.5000000000000000e+01
-5.0000000000000000e-01 5.0000000000000000e-01
ITEM: ATOMS id x y z ix iy iz v_theta vx vy vz
2 6.66588 8.34035 0 10 -1 0 -0.127023 -0.221627 0.35053 0
1 13.8842 9.59476 0 -11 1 0 5.16713 -0.125243 -0.0635987 0
ITEM: TIMESTEP
153000
ITEM: NUMBER OF ATOMS
2
ITEM: BOX BOUNDS pp pp pp
0.0000000000000000e+00 1.5000000000000000e+01
0.0000000000000000e+00 1.5000000000000000e+01
-5.0000000000000000e-01 5.0000000000000000e-01
ITEM: ATOMS id x y z ix iy iz v_theta vx vy vz
2 6.48746 8.25153 0 10 -1 0 -0.501823 -0.0268379 -0.0936022 0
1 13.9274 9.69748 0 -11 1 0 5.6284 0.264057 -0.274674 0
ITEM: TIMESTEP
154000
ITEM: NUMBER OF ATOMS
2
ITEM: BOX BOUNDS pp pp pp
0.0000000000000000e+00 1.5000000000000000e+01
0.0000000000000000e+00 1.5000000000000000e+01
-5.0000000000000000e-01 5.0000000000000000e-01
ITEM: ATOMS id x y z ix iy iz v_theta vx vy vz
2 6.62583 8.22414 0 10 -1 0 -0.35098 0.358985 0.228885 0
1 14.1483 9.73058 0 -11 1 0 5.94179 0.0302396 -0.0166074 0
ITEM: TIMESTEP
155000
ITEM: NUMBER OF ATOMS
2
ITEM: BOX BOUNDS pp pp pp
0.0000000000000000e+00 1.5000000000000000e+01
0.0000000000000000e+00 1.5000000000000000e+01
-5.0000000000000000e-01 5.0000000000000000e-01
ITEM: ATOMS id x y z ix iy iz v_theta vx vy vz
2 6.73144 8.21725 0 10 -1 0 -0.514718 0.32931 0.453637 0
1 14.0106 9.86545 0 -11 1 0 6.13935 -0.0918602 0.0623286 0
ITEM: TIMESTEP
156000
ITEM: NUMBER OF ATOMS
2
ITEM: BOX BOUNDS pp pp pp
0.0000000000000000e+00 1.5000000000000000e+01
0.0000000000000000e+00 1.5000000000000000e+01
-5.0000000000000000e-01 5.0000000000000000e-01
ITEM: ATOMS id x y z ix iy iz v_theta vx vy vz
2 6.69377 8.26208 0 10 -1 0 -0.528498 0.257484 -0.0252341 0
1 14.128 9.8747 0 -11 1 0 5.86743 0.00623914 -0.044453 0
ITEM: TIMESTEP
157000
ITEM: NUMBER OF ATOMS
2
ITEM: BOX BOUNDS pp pp pp
0.0000000000000000e+00 1.5000000000000000e+01
0.0000000000000000e+00 1.5000000000000000e+01
-5.0000000000000000e-01 5.0000000000000000e-01
ITEM: ATOMS id x y z ix iy iz v_theta vx vy vz
2 6.65983 8.20552 0 10 -1 0 -0.789372 -0.392199 -0.0595344 0
1 14.1907 9.90336 0 -11 1 0 5.08145 -0.154609 -0.195645 0
ITEM: TIMESTEP
158000
ITEM: NUMBER OF ATOMS
2
ITEM: BOX BOUNDS pp pp pp
0.0000000000000000e+00 1.5000000000000000e+01
0.0000000000000000e+00 1.5000000000000000e+01
-5.0000000000000000e-01 5.0000000000000000e-01
ITEM: ATOMS id x y z ix iy iz v_theta vx vy vz
2 6.5287 8.31008 0 10 -1 0 -0.133812 -0.168244 -0.086077 0
1 14.2 9.98478 0 -11 1 0 4.92741 -0.0299046 0.159966 0
ITEM: TIMESTEP
159000
ITEM: NUMBER OF ATOMS
2
ITEM: BOX BOUNDS pp pp pp
0.0000000000000000e+00 1.5000000000000000e+01
0.0000000000000000e+00 1.5000000000000000e+01
-5.0000000000000000e-01 5.0000000000000000e-01
ITEM: ATOMS id x y z ix iy iz v_theta vx vy vz
2 6.40737 8.34122 0 10 -1 0 -0.444698 0.154197 -0.318476 0
1 14.3286 10.1816 0 -11 1 0 4.59532 -0.34844 0.248518 0
ITEM: TIMESTEP
160000
ITEM: NUMBER OF ATOMS
2
ITEM: BOX BOUNDS pp pp pp
0.0000000000000000e+00 1.5000000000000000e+01
0.0000000000000000e+00 1.5000000000000000e+01
-5.0000000000000000e-01 5.0000000000000000e-01
ITEM: ATOMS id x y z ix iy iz v_theta vx vy vz
2 6.47251 8.3662 0 10 -1 0 0.136658 -0.015179 -0.260945 0
1 14.1767 10.3596 0 -11 1 0 4.72423 -0.205636 0.301248 0
ITEM: TIMESTEP
161000
ITEM: NUMBER OF ATOMS
2
ITEM: BOX BOUNDS pp pp pp
0.0000000000000000e+00 1.5000000000000000e+01
0.0000000000000000e+00 1.5000000000000000e+01
-5.0000000000000000e-01 5.0000000000000000e-01
ITEM: ATOMS id x y z ix iy iz v_theta vx vy vz
2 6.55924 8.43149 0 10 -1 0 0.406878 0.284451 0.136422 0
1 14.2397 10.1866 0 -11 1 0 4.42645 0.2908 -0.0477689 0
ITEM: TIMESTEP
162000
ITEM: NUMBER OF ATOMS
2
ITEM: BOX BOUNDS pp pp pp
0.0000000000000000e+00 1.5000000000000000e+01
0.0000000000000000e+00 1.5000000000000000e+01
-5.0000000000000000e-01 5.0000000000000000e-01
ITEM: ATOMS id x y z ix iy iz v_theta vx vy vz
2 6.49394 8.23 0 10 -1 0 0.0106508 0.0809923 0.00997266 0
1 14.2984 10.0006 0 -11 1 0 4.6591 0.408352 -0.260345 0
ITEM: TIMESTEP
163000
ITEM: NUMBER OF ATOMS
2
ITEM: BOX BOUNDS pp pp pp
0.0000000000000000e+00 1.5000000000000000e+01
0.0000000000000000e+00 1.5000000000000000e+01
-5.0000000000000000e-01 5.0000000000000000e-01
ITEM: ATOMS id x y z ix iy iz v_theta vx vy vz
2 6.62206 8.03697 0 10 -1 0 0.0429183 0.0221484 -0.230402 0
1 14.3323 10.0423 0 -11 1 0 4.78984 0.265351 -0.0393028 0
ITEM: TIMESTEP
164000
ITEM: NUMBER OF ATOMS
2
ITEM: BOX BOUNDS pp pp pp
0.0000000000000000e+00 1.5000000000000000e+01
0.0000000000000000e+00 1.5000000000000000e+01
-5.0000000000000000e-01 5.0000000000000000e-01
ITEM: ATOMS id x y z ix iy iz v_theta vx vy vz
2 6.5036 8.13494 0 10 -1 0 0.0939935 -0.0860687 -0.179335 0
1 14.3731 10.0807 0 -11 1 0 4.47431 0.338867 -0.173484 0
ITEM: TIMESTEP
165000
ITEM: NUMBER OF ATOMS
2
ITEM: BOX BOUNDS pp pp pp
0.0000000000000000e+00 1.5000000000000000e+01
0.0000000000000000e+00 1.5000000000000000e+01
-5.0000000000000000e-01 5.0000000000000000e-01
ITEM: ATOMS id x y z ix iy iz v_theta vx vy vz
2 6.42187 7.95816 0 10 -1 0 0.578817 0.0978324 0.135417 0
1 14.5299 10.1558 0 -11 1 0 4.14462 0.431602 0.0343064 0
ITEM: TIMESTEP
166000
ITEM: NUMBER OF ATOMS
2
ITEM: BOX BOUNDS pp pp pp
0.0000000000000000e+00 1.5000000000000000e+01
0.0000000000000000e+00 1.5000000000000000e+01
-5.0000000000000000e-01 5.0000000000000000e-01
ITEM: ATOMS id x y z ix iy iz v_theta vx vy vz
2 6.63857 7.89001 0 10 -1 0 0.947488 0.0678013 -0.438602 0
1 14.5816 10.1005 0 -11 1 0 3.30604 -0.0443484 0.190668 0
ITEM: TIMESTEP
167000
ITEM: NUMBER OF ATOMS
2
ITEM: BOX BOUNDS pp pp pp
0.0000000000000000e+00 1.5000000000000000e+01
0.0000000000000000e+00 1.5000000000000000e+01
-5.0000000000000000e-01 5.0000000000000000e-01
ITEM: ATOMS id x y z ix iy iz v_theta vx vy vz
2 6.70035 7.91352 0 10 -1 0 0.506337 -0.123958 0.356779 0
1 14.6312 10.1869 0 -11 1 0 3.29741 0.195447 -0.0275523 0
ITEM: TIMESTEP
168000
ITEM: NUMBER OF ATOMS
2
ITEM: BOX BOUNDS pp pp pp
0.0000000000000000e+00 1.5000000000000000e+01
0.0000000000000000e+00 1.5000000000000000e+01
-5.0000000000000000e-01 5.0000000000000000e-01
ITEM: ATOMS id x y z ix iy iz v_theta vx vy vz
2 6.62386 7.98184 0 10 -1 0 0.74606 -0.10516 -0.0090584 0
1 14.7675 10.1139 0 -11 1 0 3.38304 -0.174055 -0.0433567 0
ITEM: TIMESTEP
169000
ITEM: NUMBER OF ATOMS
2
ITEM: BOX BOUNDS pp pp pp
0.0000000000000000e+00 1.5000000000000000e+01
0.0000000000000000e+00 1.5000000000000000e+01
-5.0000000000000000e-01 5.0000000000000000e-01
ITEM: ATOMS id x y z ix iy iz v_theta vx vy vz
2 6.53717 7.78844 0 10 -1 0 1.46666 -0.0320969 0.130144 0
1 14.8092 10.1298 0 -11 1 0 3.7401 0.0163502 -0.160001 0
ITEM: TIMESTEP
170000
ITEM: NUMBER OF ATOMS
2
ITEM: BOX BOUNDS pp pp pp
0.0000000000000000e+00 1.5000000000000000e+01
0.0000000000000000e+00 1.5000000000000000e+01
-5.0000000000000000e-01 5.0000000000000000e-01
ITEM: ATOMS id x y z ix iy iz v_theta vx vy vz
2 6.49874 7.97248 0 10 -1 0 1.55173 0.0572644 0.037438 0
1 14.7794 10.1013 0 -11 1 0 3.1401 -0.157312 -0.50437 0
ITEM: TIMESTEP
171000
ITEM: NUMBER OF ATOMS
2
ITEM: BOX BOUNDS pp pp pp
0.0000000000000000e+00 1.5000000000000000e+01
0.0000000000000000e+00 1.5000000000000000e+01
-5.0000000000000000e-01 5.0000000000000000e-01
ITEM: ATOMS id x y z ix iy iz v_theta vx vy vz
2 6.52813 7.92427 0 10 -1 0 2.04043 0.0200966 0.0279372 0
1 14.7 10.1545 0 -11 1 0 3.51276 -0.01428 0.239796 0
ITEM: TIMESTEP
172000
ITEM: NUMBER OF ATOMS
2
ITEM: BOX BOUNDS pp pp pp
0.0000000000000000e+00 1.5000000000000000e+01
0.0000000000000000e+00 1.5000000000000000e+01
-5.0000000000000000e-01 5.0000000000000000e-01
ITEM: ATOMS id x y z ix iy iz v_theta vx vy vz
2 6.45587 7.91042 0 10 -1 0 1.81379 0.119838 -0.0229504 0
1 14.6529 10.1571 0 -11 1 0 3.36653 -0.114685 0.564051 0
ITEM: TIMESTEP
173000
ITEM: NUMBER OF ATOMS
2
ITEM: BOX BOUNDS pp pp pp
0.0000000000000000e+00 1.5000000000000000e+01
0.0000000000000000e+00 1.5000000000000000e+01
-5.0000000000000000e-01 5.0000000000000000e-01
ITEM: ATOMS id x y z ix iy iz v_theta vx vy vz
2 6.62399 7.9459 0 10 -1 0 1.84166 0.294292 0.38119 0
1 14.7598 10.2603 0 -11 1 0 3.45339 -0.0283587 0.351469 0
ITEM: TIMESTEP
174000
ITEM: NUMBER OF ATOMS
2
ITEM: BOX BOUNDS pp pp pp
0.0000000000000000e+00 1.5000000000000000e+01
0.0000000000000000e+00 1.5000000000000000e+01
-5.0000000000000000e-01 5.0000000000000000e-01
ITEM: ATOMS id x y z ix iy iz v_theta vx vy vz
2 6.73783 7.96009 0 10 -1 0 1.92191 -0.334293 0.111499 0
1 14.5931 10.4127 0 -11 1 0 3.82466 -0.0377827 0.203718 0
ITEM: TIMESTEP
175000
ITEM: NUMBER OF ATOMS
2
ITEM: BOX BOUNDS pp pp pp
0.0000000000000000e+00 1.5000000000000000e+01
0.0000000000000000e+00 1.5000000000000000e+01
-5.0000000000000000e-01 5.0000000000000000e-01
ITEM: ATOMS id x y z ix iy iz v_theta vx vy vz
2 6.76011 8.19909 0 10 -1 0 1.81533 -0.356586 -0.130546 0
1 14.5964 10.5196 0 -11 1 0 4.15933 -0.108394 0.00202183 0
ITEM: TIMESTEP
176000
ITEM: NUMBER OF ATOMS
2
ITEM: BOX BOUNDS pp pp pp
0.0000000000000000e+00 1.5000000000000000e+01
0.0000000000000000e+00 1.5000000000000000e+01
-5.0000000000000000e-01 5.0000000000000000e-01
ITEM: ATOMS id x y z ix iy iz v_theta vx vy vz
2 6.64667 8.26656 0 10 -1 0 1.85344 -0.260107 -0.00952169 0
1 14.5773 10.5545 0 -11 1 0 3.9676 -0.33585 0.192904 0
ITEM: TIMESTEP
177000
ITEM: NUMBER OF ATOMS
2
ITEM: BOX BOUNDS pp pp pp
0.0000000000000000e+00 1.5000000000000000e+01
0.0000000000000000e+00 1.5000000000000000e+01
-5.0000000000000000e-01 5.0000000000000000e-01
ITEM: ATOMS id x y z ix iy iz v_theta vx vy vz
2 6.61941 8.25867 0 10 -1 0 1.71054 0.0493917 0.466589 0
1 14.442 10.5729 0 -11 1 0 4.44609 0.170647 0.288879 0
ITEM: TIMESTEP
178000
ITEM: NUMBER OF ATOMS
2
ITEM: BOX BOUNDS pp pp pp
0.0000000000000000e+00 1.5000000000000000e+01
0.0000000000000000e+00 1.5000000000000000e+01
-5.0000000000000000e-01 5.0000000000000000e-01
ITEM: ATOMS id x y z ix iy iz v_theta vx vy vz
2 6.6774 8.42292 0 10 -1 0 1.36378 0.0411981 0.0471441 0
1 14.4748 10.6167 0 -11 1 0 4.11742 -0.0750492 0.330235 0
ITEM: TIMESTEP
179000
ITEM: NUMBER OF ATOMS
2
ITEM: BOX BOUNDS pp pp pp
0.0000000000000000e+00 1.5000000000000000e+01
0.0000000000000000e+00 1.5000000000000000e+01
-5.0000000000000000e-01 5.0000000000000000e-01
ITEM: ATOMS id x y z ix iy iz v_theta vx vy vz
2 6.77664 8.3317 0 10 -1 0 1.59634 -0.183553 -0.296604 0
1 14.4779 10.5053 0 -11 1 0 4.33136 -0.394785 -0.270406 0
ITEM: TIMESTEP
180000
ITEM: NUMBER OF ATOMS
2
ITEM: BOX BOUNDS pp pp pp
0.0000000000000000e+00 1.5000000000000000e+01